/n/scratchlfs/kozinsky_lab/xiey/flare/tests/test_mff/lmp_tmp/data_lammps000001qfpsb_19 (written by ASE) 

200 	 atoms 
1  atom types
0.0 25.510200000  xlo xhi
0.0 22.092481255  ylo yhi
0.0 20.000000000  zlo zhi
-12.755099999 0E-9 0E-9  xy xz yz


Atoms 

     1   1 0E-9 0E-9 0E-9
     2   1 -0E-9 1.420281662 0E-9
     3   1 -1.230000000 2.130422493 0E-9
     4   1 -1.230000000 3.550704156 0E-9
     5   1 -2.460000000 4.260844987 0E-9
     6   1 -2.460000000 5.681126649 0E-9
     7   1 -3.690000000 6.391267480 0E-9
     8   1 -3.690000000 7.811549142 0E-9
     9   1 -4.920000000 8.521689973 0E-9
    10   1 -4.920000000 9.941971635 0E-9
    11   1 -6.150000000 10.652112467 0E-9
    12   1 -6.150000000 12.072394129 0E-9
    13   1 -7.380000000 12.782534960 0E-9
    14   1 -7.380000000 14.202816622 0E-9
    15   1 -8.610000000 14.912957453 0E-9
    16   1 -8.610000000 16.333239115 0E-9
    17   1 -9.840000000 17.043379946 0E-9
    18   1 -9.840000000 18.463661609 0E-9
    19   1 -11.070000000 19.173802440 0E-9
    20   1 -11.070000000 20.594084102 0E-9
    21   1 2.460000000 0E-9 0E-9
    22   1 2.460000000 1.420281662 0E-9
    23   1 1.230000000 2.130422493 0E-9
    24   1 1.230000000 3.550704156 0E-9
    25   1 -0E-9 4.260844987 0E-9
    26   1 -0E-9 5.681126649 0E-9
    27   1 -1.230000000 6.391267480 0E-9
    28   1 -1.230000000 7.811549142 0E-9
    29   1 -2.460000000 8.521689973 0E-9
    30   1 -2.460000000 9.941971635 0E-9
    31   1 -3.690000000 10.652112467 0E-9
    32   1 -3.690000000 12.072394129 0E-9
    33   1 -4.920000000 12.782534960 0E-9
    34   1 -4.920000000 14.202816622 0E-9
    35   1 -6.150000000 14.912957453 0E-9
    36   1 -6.150000000 16.333239115 0E-9
    37   1 -7.380000000 17.043379946 0E-9
    38   1 -7.380000000 18.463661609 0E-9
    39   1 -8.610000000 19.173802440 0E-9
    40   1 -8.610000000 20.594084102 0E-9
    41   1 4.920000000 0E-9 0E-9
    42   1 4.920000000 1.420281662 0E-9
    43   1 3.690000000 2.130422493 0E-9
    44   1 3.690000000 3.550704156 0E-9
    45   1 2.460000000 4.260844987 0E-9
    46   1 2.460000000 5.681126649 0E-9
    47   1 1.230000000 6.391267480 0E-9
    48   1 1.230000000 7.811549142 0E-9
    49   1 -0E-9 8.521689973 0E-9
    50   1 -0E-9 9.941971635 0E-9
    51   1 -1.230000000 10.652112467 0E-9
    52   1 -1.230000000 12.072394129 0E-9
    53   1 -2.460000000 12.782534960 0E-9
    54   1 -2.460000000 14.202816622 0E-9
    55   1 -3.690000000 14.912957453 0E-9
    56   1 -3.690000000 16.333239115 0E-9
    57   1 -4.920000000 17.043379946 0E-9
    58   1 -4.920000000 18.463661609 0E-9
    59   1 -6.150000000 19.173802440 0E-9
    60   1 -6.150000000 20.594084102 0E-9
    61   1 7.380000000 0E-9 0E-9
    62   1 7.380000000 1.420281662 0E-9
    63   1 6.150000000 2.130422493 0E-9
    64   1 6.150000000 3.550704156 0E-9
    65   1 4.920000000 4.260844987 0E-9
    66   1 4.920000000 5.681126649 0E-9
    67   1 3.690000000 6.391267480 0E-9
    68   1 3.690000000 7.811549142 0E-9
    69   1 2.460000000 8.521689973 0E-9
    70   1 2.460000000 9.941971635 0E-9
    71   1 1.230000000 10.652112467 0E-9
    72   1 1.230000000 12.072394129 0E-9
    73   1 -0E-9 12.782534960 0E-9
    74   1 -0E-9 14.202816622 0E-9
    75   1 -1.230000000 14.912957453 0E-9
    76   1 -1.230000000 16.333239115 0E-9
    77   1 -2.460000000 17.043379946 0E-9
    78   1 -2.460000000 18.463661609 0E-9
    79   1 -3.690000000 19.173802440 0E-9
    80   1 -3.690000000 20.594084102 0E-9
    81   1 9.840000000 0E-9 0E-9
    82   1 9.840000000 1.420281662 0E-9
    83   1 8.610000000 2.130422493 0E-9
    84   1 8.610000000 3.550704156 0E-9
    85   1 7.380000000 4.260844987 0E-9
    86   1 7.380000000 5.681126649 0E-9
    87   1 6.150000000 6.391267480 0E-9
    88   1 6.150000000 7.811549142 0E-9
    89   1 4.920000000 8.521689973 0E-9
    90   1 4.920000000 9.941971635 0E-9
    91   1 3.690000000 10.652112467 0E-9
    92   1 3.690000000 12.072394129 0E-9
    93   1 2.460000000 12.782534960 0E-9
    94   1 2.460000000 14.202816622 0E-9
    95   1 1.230000000 14.912957453 0E-9
    96   1 1.230000000 16.333239115 0E-9
    97   1 -0E-9 17.043379946 0E-9
    98   1 -0E-9 18.463661609 0E-9
    99   1 -1.230000000 19.173802440 0E-9
   100   1 -1.230000000 20.594084102 0E-9
   101   1 12.300000000 0E-9 0E-9
   102   1 12.300000000 1.420281662 0E-9
   103   1 11.070000000 2.130422493 0E-9
   104   1 11.070000000 3.550704156 0E-9
   105   1 9.840000000 4.260844987 0E-9
   106   1 9.840000000 5.681126649 0E-9
   107   1 8.610000000 6.391267480 0E-9
   108   1 8.610000000 7.811549142 0E-9
   109   1 7.380000000 8.521689973 0E-9
   110   1 7.380000000 9.941971635 0E-9
   111   1 6.150000000 10.652112467 0E-9
   112   1 6.150000000 12.072394129 0E-9
   113   1 4.920000000 12.782534960 0E-9
   114   1 4.920000000 14.202816622 0E-9
   115   1 3.690000000 14.912957453 0E-9
   116   1 3.690000000 16.333239115 0E-9
   117   1 2.460000000 17.043379946 0E-9
   118   1 2.460000000 18.463661609 0E-9
   119   1 1.230000000 19.173802440 0E-9
   120   1 1.230000000 20.594084102 0E-9
   121   1 14.760000000 0E-9 0E-9
   122   1 14.760000000 1.420281662 0E-9
   123   1 13.530000000 2.130422493 0E-9
   124   1 13.530000000 3.550704156 0E-9
   125   1 12.300000000 4.260844987 0E-9
   126   1 12.300000000 5.681126649 0E-9
   127   1 11.070000000 6.391267480 0E-9
   128   1 11.070000000 7.811549142 0E-9
   129   1 9.840000000 8.521689973 0E-9
   130   1 9.840000000 9.941971635 0E-9
   131   1 8.610000000 10.652112467 0E-9
   132   1 8.610000000 12.072394129 0E-9
   133   1 7.380000000 12.782534960 0E-9
   134   1 7.380000000 14.202816622 0E-9
   135   1 6.150000000 14.912957453 0E-9
   136   1 6.150000000 16.333239115 0E-9
   137   1 4.920000000 17.043379946 0E-9
   138   1 4.920000000 18.463661609 0E-9
   139   1 3.690000000 19.173802440 0E-9
   140   1 3.690000000 20.594084102 0E-9
   141   1 17.220000000 0E-9 0E-9
   142   1 17.220000000 1.420281662 0E-9
   143   1 15.990000000 2.130422493 0E-9
   144   1 15.990000000 3.550704156 0E-9
   145   1 14.760000000 4.260844987 0E-9
   146   1 14.760000000 5.681126649 0E-9
   147   1 13.530000000 6.391267480 0E-9
   148   1 13.530000000 7.811549142 0E-9
   149   1 12.300000000 8.521689973 0E-9
   150   1 12.300000000 9.941971635 0E-9
   151   1 11.070000000 10.652112467 0E-9
   152   1 11.070000000 12.072394129 0E-9
   153   1 9.840000000 12.782534960 0E-9
   154   1 9.840000000 14.202816622 0E-9
   155   1 8.610000000 14.912957453 0E-9
   156   1 8.610000000 16.333239115 0E-9
   157   1 7.380000000 17.043379946 0E-9
   158   1 7.380000000 18.463661609 0E-9
   159   1 6.150000000 19.173802440 0E-9
   160   1 6.150000000 20.594084102 0E-9
   161   1 19.680000000 0E-9 0E-9
   162   1 19.680000000 1.420281662 0E-9
   163   1 18.450000000 2.130422493 0E-9
   164   1 18.450000000 3.550704156 0E-9
   165   1 17.220000000 4.260844987 0E-9
   166   1 17.220000000 5.681126649 0E-9
   167   1 15.990000000 6.391267480 0E-9
   168   1 15.990000000 7.811549142 0E-9
   169   1 14.760000000 8.521689973 0E-9
   170   1 14.760000000 9.941971635 0E-9
   171   1 13.530000000 10.652112467 0E-9
   172   1 13.530000000 12.072394129 0E-9
   173   1 12.300000000 12.782534960 0E-9
   174   1 12.300000000 14.202816622 0E-9
   175   1 11.070000000 14.912957453 0E-9
   176   1 11.070000000 16.333239115 0E-9
   177   1 9.840000000 17.043379946 0E-9
   178   1 9.840000000 18.463661609 0E-9
   179   1 8.610000000 19.173802440 0E-9
   180   1 8.610000000 20.594084102 0E-9
   181   1 22.140000000 0E-9 0E-9
   182   1 22.140000000 1.420281662 0E-9
   183   1 20.910000000 2.130422493 0E-9
   184   1 20.910000000 3.550704156 0E-9
   185   1 19.680000000 4.260844987 0E-9
   186   1 19.680000000 5.681126649 0E-9
   187   1 18.450000000 6.391267480 0E-9
   188   1 18.450000000 7.811549142 0E-9
   189   1 17.220000000 8.521689973 0E-9
   190   1 17.220000000 9.941971635 0E-9
   191   1 15.990000000 10.652112467 0E-9
   192   1 15.990000000 12.072394129 0E-9
   193   1 14.760000000 12.782534960 0E-9
   194   1 14.760000000 14.202816622 0E-9
   195   1 13.530000000 14.912957453 0E-9
   196   1 13.530000000 16.333239115 0E-9
   197   1 12.300000000 17.043379946 0E-9
   198   1 12.300000000 18.463661609 0E-9
   199   1 11.070000000 19.173802440 0E-9
   200   1 11.070000000 20.594084102 0E-9
