
     Program PWSCF v.6.3 starts on 24Sep2019 at 21:47:35 

     This program is part of the open-source Quantum ESPRESSO suite
     for quantum simulation of materials; please cite
         "P. Giannozzi et al., J. Phys.:Condens. Matter 21 395502 (2009);
         "P. Giannozzi et al., J. Phys.:Condens. Matter 29 465901 (2017);
          URL http://www.quantum-espresso.org", 
     in publications or presentations arising from this work. More details at
     http://www.quantum-espresso.org/quote

     Parallel version (MPI), running on     1 processors

     MPI processes distributed on     1 nodes
     Waiting for input...
     Reading input from standard input
Warning: card &IONS ignored
Warning: card / ignored
Warning: card &CELL ignored
Warning: card / ignored

     Current dimensions of program PWSCF are:
     Max number of different atomic species (ntypx) = 10
     Max number of k-points (npk) =  40000
     Max angular momentum in pseudopotentials (lmaxx) =  3
               file Ag.pbe-n-kjpaw_psl.1.0.0.UPF: wavefunction(s)  5S 5P renormalized
               file I.pbe-n-kjpaw_psl.1.0.0.UPF: wavefunction(s)  5S renormalized

     gamma-point specific algorithms are used

     Subspace diagonalization in iterative solution of the eigenvalue problem:
     a serial algorithm will be used

 
     G-vector sticks info
     --------------------
     sticks:   dense  smooth     PW     G-vecs:    dense   smooth      PW
     Sum        1045    1045    517                11183    11183    3903
 


     bravais-lattice index     =            0
     lattice parameter (alat)  =      19.5231  a.u.
     unit-cell volume          =    2630.8975 (a.u.)^3
     number of atoms/cell      =            8
     number of atomic types    =            2
     number of electrons       =        72.00
     number of Kohn-Sham states=           43
     kinetic-energy cutoff     =      20.0000  Ry
     charge density cutoff     =      40.0000  Ry
     convergence threshold     =      1.0E-05
     mixing beta               =       0.5000
     number of iterations used =            8  plain     mixing
     Exchange-correlation      = SLA PW PBX PBC ( 1  4  3  4 0 0)

     celldm(1)=  19.523139  celldm(2)=   0.000000  celldm(3)=   0.000000
     celldm(4)=   0.000000  celldm(5)=   0.000000  celldm(6)=   0.000000

     crystal axes: (cart. coord. in units of alat)
               a(1) = (   1.000000   0.000000   0.000000 )  
               a(2) = (   0.500000   0.866025   0.000000 )  
               a(3) = (   0.250000   0.144338   0.408248 )  

     reciprocal axes: (cart. coord. in units 2 pi/alat)
               b(1) = (  1.000000 -0.577350 -0.408248 )  
               b(2) = (  0.000000  1.154701 -0.408248 )  
               b(3) = (  0.000000  0.000000  2.449490 )  


     PseudoPot. # 1 for Ag read from file:
     /n/home08/xiey/q-e/pseudo/Ag.pbe-n-kjpaw_psl.1.0.0.UPF
     MD5 check sum: 51099775af2a3182a6a1caffb86952a3
     Pseudo is Projector augmented-wave + core cor, Zval = 11.0
     Generated using "atomic" code by A. Dal Corso v.6.2.2
     Shape of augmentation charge: PSQ
     Using radial grid of 1237 points,  6 beta functions with: 
                l(1) =   0
                l(2) =   0
                l(3) =   1
                l(4) =   1
                l(5) =   2
                l(6) =   2
     Q(r) pseudized with 0 coefficients 


     PseudoPot. # 2 for I  read from file:
     /n/home08/xiey/q-e/pseudo/I.pbe-n-kjpaw_psl.1.0.0.UPF
     MD5 check sum: cd3d296c3308a581e1559a0c8a554cb5
     Pseudo is Projector augmented-wave + core cor, Zval =  7.0
     Generated using "atomic" code by A. Dal Corso v.6.3
     Shape of augmentation charge: PSQ
     Using radial grid of 1247 points,  6 beta functions with: 
                l(1) =   0
                l(2) =   0
                l(3) =   1
                l(4) =   1
                l(5) =   2
                l(6) =   2
     Q(r) pseudized with 0 coefficients 


     atomic species   valence    mass     pseudopotential
        Ag            11.00   107.86820     Ag( 1.00)
        I              7.00   126.90447     I ( 1.00)

     No symmetry found



   Cartesian axes

     site n.     atom                  positions (alat units)
         1           Ag  tau(   1) = (  -0.0517450  -0.0078515  -0.0208274  )
         2           I   tau(   2) = (   0.1994761   0.1725789   0.1511398  )
         3           Ag  tau(   3) = (   0.2396481   0.4638901   0.0722032  )
         4           I   tau(   4) = (   0.5323992   0.5523575   0.0780815  )
         5           Ag  tau(   5) = (   0.4656462  -0.0422217  -0.0248046  )
         6           I   tau(   6) = (   0.7414910   0.1267080   0.1098920  )
         7           Ag  tau(   7) = (   0.7524227   0.3883696   0.0353813  )
         8           I   tau(   8) = (   1.0081477   0.5874213   0.1086341  )

     number of k points=     1  gaussian smearing, width (Ry)=  0.0200
                       cart. coord. in units 2pi/alat
        k(    1) = (   0.0000000   0.0000000   0.0000000), wk =   2.0000000

     Dense  grid:     5592 G-vectors     FFT dimensions: (  40,  40,  20)

     Estimated max dynamical RAM per process >      31.34 MB

     Check: negative core charge=   -0.000019

     Initial potential from superposition of free atoms

     starting charge   71.99810, renormalised to   72.00000

     negative rho (up, down):  8.801E-02 0.000E+00
     Starting wfcs are   52 randomized atomic wfcs
     Checking if some PAW data can be deallocated... 

     total cpu time spent up to now is        2.1 secs

     Self-consistent Calculation

     iteration #  1     ecut=    20.00 Ry     beta= 0.50
     Davidson diagonalization with overlap
     ethr =  1.00E-02,  avg # of iterations =  2.0

     negative rho (up, down):  1.680E-01 0.000E+00

     total cpu time spent up to now is        3.0 secs

     total energy              =   -2929.22381519 Ry
     Harris-Foulkes estimate   =   -2930.35519616 Ry
     estimated scf accuracy    <       1.79431388 Ry

     iteration #  2     ecut=    20.00 Ry     beta= 0.50
     Davidson diagonalization with overlap
     ethr =  2.49E-03,  avg # of iterations =  2.0

     negative rho (up, down):  2.423E-01 0.000E+00

     total cpu time spent up to now is        3.8 secs

     total energy              =   -2929.63612886 Ry
     Harris-Foulkes estimate   =   -2929.78509550 Ry
     estimated scf accuracy    <       0.36203085 Ry

     iteration #  3     ecut=    20.00 Ry     beta= 0.50
     Davidson diagonalization with overlap
     ethr =  5.03E-04,  avg # of iterations =  3.0

     negative rho (up, down):  3.164E-01 0.000E+00

     total cpu time spent up to now is        4.7 secs

     total energy              =   -2929.68745055 Ry
     Harris-Foulkes estimate   =   -2929.70496237 Ry
     estimated scf accuracy    <       0.07854482 Ry

     iteration #  4     ecut=    20.00 Ry     beta= 0.50
     Davidson diagonalization with overlap
     ethr =  1.09E-04,  avg # of iterations =  5.0

     negative rho (up, down):  3.951E-01 0.000E+00

     total cpu time spent up to now is        5.6 secs

     total energy              =   -2929.73765381 Ry
     Harris-Foulkes estimate   =   -2929.70945344 Ry
     estimated scf accuracy    <       0.04999040 Ry

     iteration #  5     ecut=    20.00 Ry     beta= 0.50
     Davidson diagonalization with overlap
     ethr =  6.94E-05,  avg # of iterations =  3.0

     negative rho (up, down):  3.456E-01 0.000E+00

     total cpu time spent up to now is        6.4 secs

     total energy              =   -2929.57616648 Ry
     Harris-Foulkes estimate   =   -2929.76249244 Ry
     estimated scf accuracy    <       0.08987391 Ry

     iteration #  6     ecut=    20.00 Ry     beta= 0.50
     Davidson diagonalization with overlap
     ethr =  6.94E-05,  avg # of iterations =  3.0

     negative rho (up, down):  3.482E-01 0.000E+00

     total cpu time spent up to now is        7.3 secs

     total energy              =   -2929.65142492 Ry
     Harris-Foulkes estimate   =   -2929.66990437 Ry
     estimated scf accuracy    <       0.00983491 Ry

     iteration #  7     ecut=    20.00 Ry     beta= 0.50
     Davidson diagonalization with overlap
     ethr =  1.37E-05,  avg # of iterations =  4.0

     negative rho (up, down):  3.505E-01 0.000E+00

     total cpu time spent up to now is        8.2 secs

     total energy              =   -2929.66157546 Ry
     Harris-Foulkes estimate   =   -2929.66085294 Ry
     estimated scf accuracy    <       0.00161809 Ry

     iteration #  8     ecut=    20.00 Ry     beta= 0.50
     Davidson diagonalization with overlap
     ethr =  2.25E-06,  avg # of iterations =  4.0

     negative rho (up, down):  3.492E-01 0.000E+00

     total cpu time spent up to now is        9.0 secs

     total energy              =   -2929.66083036 Ry
     Harris-Foulkes estimate   =   -2929.66231847 Ry
     estimated scf accuracy    <       0.00254771 Ry

     iteration #  9     ecut=    20.00 Ry     beta= 0.50
     Davidson diagonalization with overlap
     ethr =  2.25E-06,  avg # of iterations =  2.0

     negative rho (up, down):  3.474E-01 0.000E+00

     total cpu time spent up to now is        9.9 secs

     total energy              =   -2929.65688835 Ry
     Harris-Foulkes estimate   =   -2929.66101470 Ry
     estimated scf accuracy    <       0.00166207 Ry

     iteration # 10     ecut=    20.00 Ry     beta= 0.50
     Davidson diagonalization with overlap
     ethr =  2.25E-06,  avg # of iterations =  3.0

     negative rho (up, down):  3.482E-01 0.000E+00

     total cpu time spent up to now is       10.8 secs

     total energy              =   -2929.65860507 Ry
     Harris-Foulkes estimate   =   -2929.65876155 Ry
     estimated scf accuracy    <       0.00017621 Ry

     iteration # 11     ecut=    20.00 Ry     beta= 0.50
     Davidson diagonalization with overlap
     ethr =  2.45E-07,  avg # of iterations =  3.0

     negative rho (up, down):  3.477E-01 0.000E+00

     total cpu time spent up to now is       11.6 secs

     total energy              =   -2929.65863726 Ry
     Harris-Foulkes estimate   =   -2929.65854574 Ry
     estimated scf accuracy    <       0.00013013 Ry

     iteration # 12     ecut=    20.00 Ry     beta= 0.50
     Davidson diagonalization with overlap
     ethr =  1.81E-07,  avg # of iterations =  2.0

     negative rho (up, down):  3.481E-01 0.000E+00

     total cpu time spent up to now is       12.5 secs

     total energy              =   -2929.65824418 Ry
     Harris-Foulkes estimate   =   -2929.65865200 Ry
     estimated scf accuracy    <       0.00021305 Ry

     iteration # 13     ecut=    20.00 Ry     beta= 0.50
     Davidson diagonalization with overlap
     ethr =  1.81E-07,  avg # of iterations =  3.0

     negative rho (up, down):  3.480E-01 0.000E+00

     total cpu time spent up to now is       13.4 secs

     total energy              =   -2929.65825251 Ry
     Harris-Foulkes estimate   =   -2929.65836446 Ry
     estimated scf accuracy    <       0.00004847 Ry

     iteration # 14     ecut=    20.00 Ry     beta= 0.50
     Davidson diagonalization with overlap
     ethr =  6.73E-08,  avg # of iterations =  3.0

     negative rho (up, down):  3.472E-01 0.000E+00

     total cpu time spent up to now is       14.2 secs

     End of self-consistent calculation

          k = 0.0000 0.0000 0.0000 (  1952 PWs)   bands (ev):

   -10.9023 -10.6207 -10.4395  -9.9435  -3.0799  -2.9683  -2.8536  -2.6993
    -2.5694  -2.5294  -2.4152  -2.3647  -2.2625  -2.2328  -2.1607  -2.1211
    -2.1156  -2.0819  -2.0088  -1.9814  -1.9668  -1.9155  -1.8324  -1.7428
    -1.5485  -1.3020  -0.9956  -0.2381  -0.1043   0.1305   0.3204   0.4476
     0.5197   0.8295   0.8586   0.8941   1.6449   3.2649   3.5014   4.0814
     4.4384   5.8937   6.1067

     the Fermi energy is     1.2990 ev

!    total energy              =   -2929.65828996 Ry
     Harris-Foulkes estimate   =   -2929.65827350 Ry
     estimated scf accuracy    <       0.00000945 Ry

     total all-electron energy =    -99453.512280 Ry

     The total energy is the sum of the following terms:

     one-electron contribution =    -174.56180650 Ry
     hartree contribution      =     142.12058753 Ry
     xc contribution           =    -151.11411324 Ry
     ewald contribution        =    -253.94130046 Ry
     one-center paw contrib.   =   -2492.15678095 Ry
     smearing contrib. (-TS)   =      -0.00487634 Ry

     convergence has been achieved in  14 iterations

     negative rho (up, down):  3.472E-01 0.000E+00

     Forces acting on atoms (cartesian axes, Ry/au):

     atom    1 type  1   force =    -0.00893096   -0.03059254    0.06736428
     atom    2 type  2   force =     0.01412673    0.03112717   -0.07896105
     atom    3 type  1   force =     0.01114365    0.00735884    0.00889207
     atom    4 type  2   force =     0.00711902   -0.00759285   -0.01164149
     atom    5 type  1   force =    -0.01423902   -0.02789535   -0.00587254
     atom    6 type  2   force =     0.01867580    0.00976465    0.00807831
     atom    7 type  1   force =    -0.02795267   -0.00108704    0.02829436
     atom    8 type  2   force =     0.00005746    0.01891713   -0.01615394

     Total force =     0.131091     Total SCF correction =     0.001775


     Computing stress (Cartesian axis) and pressure


     negative rho (up, down):  3.472E-01 0.000E+00
          total   stress  (Ry/bohr**3)                   (kbar)     P=-1263.68
  -0.00865726  -0.00002210   0.00003754      -1273.53     -3.25      5.52
  -0.00002210  -0.00861092   0.00002346         -3.25  -1266.71      3.45
   0.00003754   0.00002346  -0.00850288          5.52      3.45  -1250.82


     Writing output data file AgI.save/
 
     init_run     :      1.19s CPU      1.24s WALL (       1 calls)
     electrons    :     12.06s CPU     12.13s WALL (       1 calls)
     forces       :      0.04s CPU      0.04s WALL (       1 calls)
     stress       :      0.14s CPU      0.14s WALL (       1 calls)

     Called by init_run:
     wfcinit      :      0.02s CPU      0.02s WALL (       1 calls)
     potinit      :      0.78s CPU      0.81s WALL (       1 calls)
     hinit0       :      0.37s CPU      0.37s WALL (       1 calls)

     Called by electrons:
     c_bands      :      0.76s CPU      0.78s WALL (      14 calls)
     sum_band     :      0.32s CPU      0.33s WALL (      14 calls)
     v_of_rho     :      0.11s CPU      0.11s WALL (      15 calls)
     newd         :      0.17s CPU      0.18s WALL (      15 calls)
     PAW_pot      :     11.47s CPU     11.53s WALL (      15 calls)
     mix_rho      :      0.01s CPU      0.01s WALL (      14 calls)

     Called by c_bands:
     init_us_2    :      0.02s CPU      0.03s WALL (      29 calls)
     regterg      :      0.58s CPU      0.59s WALL (      14 calls)

     Called by sum_band:
     sum_band:bec :      0.00s CPU      0.00s WALL (      14 calls)
     addusdens    :      0.23s CPU      0.23s WALL (      14 calls)

     Called by *egterg:
     h_psi        :      0.39s CPU      0.40s WALL (      57 calls)
     s_psi        :      0.02s CPU      0.02s WALL (      57 calls)
     g_psi        :      0.00s CPU      0.00s WALL (      42 calls)
     rdiaghg      :      0.09s CPU      0.09s WALL (      56 calls)

     Called by h_psi:
     h_psi:pot    :      0.39s CPU      0.39s WALL (      57 calls)
     h_psi:calbec :      0.03s CPU      0.03s WALL (      57 calls)
     vloc_psi     :      0.33s CPU      0.34s WALL (      57 calls)
     add_vuspsi   :      0.03s CPU      0.03s WALL (      57 calls)

     General routines
     calbec       :      0.04s CPU      0.04s WALL (      76 calls)
     fft          :      0.03s CPU      0.03s WALL (     155 calls)
     ffts         :      0.00s CPU      0.00s WALL (      14 calls)
     fftw         :      0.36s CPU      0.36s WALL (    1812 calls)
 
     Parallel routines
 
     PWSCF        :     14.26s CPU     14.47s WALL

 
   This run was terminated on:  21:47:49  24Sep2019            

=------------------------------------------------------------------------------=
   JOB DONE.
=------------------------------------------------------------------------------=
