
     Program PWSCF v.6.3 starts on 24Sep2019 at 23:14:32 

     This program is part of the open-source Quantum ESPRESSO suite
     for quantum simulation of materials; please cite
         "P. Giannozzi et al., J. Phys.:Condens. Matter 21 395502 (2009);
         "P. Giannozzi et al., J. Phys.:Condens. Matter 29 465901 (2017);
          URL http://www.quantum-espresso.org", 
     in publications or presentations arising from this work. More details at
     http://www.quantum-espresso.org/quote

     Parallel version (MPI), running on     1 processors

     MPI processes distributed on     1 nodes
     Waiting for input...
     Reading input from standard input
Warning: card &IONS ignored
Warning: card / ignored
Warning: card &CELL ignored
Warning: card / ignored

     Current dimensions of program PWSCF are:
     Max number of different atomic species (ntypx) = 10
     Max number of k-points (npk) =  40000
     Max angular momentum in pseudopotentials (lmaxx) =  3
               file Ag.pbe-n-kjpaw_psl.1.0.0.UPF: wavefunction(s)  5S 5P renormalized
               file I.pbe-n-kjpaw_psl.1.0.0.UPF: wavefunction(s)  5S renormalized

     gamma-point specific algorithms are used

     Subspace diagonalization in iterative solution of the eigenvalue problem:
     a serial algorithm will be used

 
     G-vector sticks info
     --------------------
     sticks:   dense  smooth     PW     G-vecs:    dense   smooth      PW
     Sum        1045    1045    517                11183    11183    3903
 


     bravais-lattice index     =            0
     lattice parameter (alat)  =      19.5231  a.u.
     unit-cell volume          =    2630.8975 (a.u.)^3
     number of atoms/cell      =            8
     number of atomic types    =            2
     number of electrons       =        72.00
     number of Kohn-Sham states=           43
     kinetic-energy cutoff     =      20.0000  Ry
     charge density cutoff     =      40.0000  Ry
     convergence threshold     =      1.0E-05
     mixing beta               =       0.5000
     number of iterations used =            8  plain     mixing
     Exchange-correlation      = SLA PW PBX PBC ( 1  4  3  4 0 0)

     celldm(1)=  19.523139  celldm(2)=   0.000000  celldm(3)=   0.000000
     celldm(4)=   0.000000  celldm(5)=   0.000000  celldm(6)=   0.000000

     crystal axes: (cart. coord. in units of alat)
               a(1) = (   1.000000   0.000000   0.000000 )  
               a(2) = (   0.500000   0.866025   0.000000 )  
               a(3) = (   0.250000   0.144338   0.408248 )  

     reciprocal axes: (cart. coord. in units 2 pi/alat)
               b(1) = (  1.000000 -0.577350 -0.408248 )  
               b(2) = (  0.000000  1.154701 -0.408248 )  
               b(3) = (  0.000000  0.000000  2.449490 )  


     PseudoPot. # 1 for Ag read from file:
     ../test_files/pseudos/Ag.pbe-n-kjpaw_psl.1.0.0.UPF
     MD5 check sum: 51099775af2a3182a6a1caffb86952a3
     Pseudo is Projector augmented-wave + core cor, Zval = 11.0
     Generated using "atomic" code by A. Dal Corso v.6.2.2
     Shape of augmentation charge: PSQ
     Using radial grid of 1237 points,  6 beta functions with: 
                l(1) =   0
                l(2) =   0
                l(3) =   1
                l(4) =   1
                l(5) =   2
                l(6) =   2
     Q(r) pseudized with 0 coefficients 


     PseudoPot. # 2 for I  read from file:
     ../test_files/pseudos/I.pbe-n-kjpaw_psl.1.0.0.UPF
     MD5 check sum: cd3d296c3308a581e1559a0c8a554cb5
     Pseudo is Projector augmented-wave + core cor, Zval =  7.0
     Generated using "atomic" code by A. Dal Corso v.6.3
     Shape of augmentation charge: PSQ
     Using radial grid of 1247 points,  6 beta functions with: 
                l(1) =   0
                l(2) =   0
                l(3) =   1
                l(4) =   1
                l(5) =   2
                l(6) =   2
     Q(r) pseudized with 0 coefficients 


     atomic species   valence    mass     pseudopotential
        Ag            11.00   107.86820     Ag( 1.00)
        I              7.00   126.90447     I ( 1.00)

     No symmetry found



   Cartesian axes

     site n.     atom                  positions (alat units)
         1           Ag  tau(   1) = (  -0.0457906   0.0218830  -0.0585787  )
         2           I   tau(   2) = (   0.2564894   0.1386005   0.1264040  )
         3           Ag  tau(   3) = (   0.2868512   0.4538138  -0.0130059  )
         4           I   tau(   4) = (   0.4886415   0.6241178   0.1317527  )
         5           Ag  tau(   5) = (   0.4543753  -0.0458863  -0.0314674  )
         6           I   tau(   6) = (   0.7740122   0.0622681   0.0949200  )
         7           Ag  tau(   7) = (   0.7878924   0.3807490  -0.0277168  )
         8           I   tau(   8) = (   0.9958589   0.6645945   0.0780273  )

     number of k points=     1  gaussian smearing, width (Ry)=  0.0200
                       cart. coord. in units 2pi/alat
        k(    1) = (   0.0000000   0.0000000   0.0000000), wk =   2.0000000

     Dense  grid:     5592 G-vectors     FFT dimensions: (  40,  40,  20)

     Estimated max dynamical RAM per process >      31.34 MB

     Check: negative core charge=   -0.000019

     Initial potential from superposition of free atoms

     starting charge   71.99810, renormalised to   72.00000

     negative rho (up, down):  1.001E-01 0.000E+00
     Starting wfcs are   52 randomized atomic wfcs
     Checking if some PAW data can be deallocated... 

     total cpu time spent up to now is        2.1 secs

     Self-consistent Calculation

     iteration #  1     ecut=    20.00 Ry     beta= 0.50
     Davidson diagonalization with overlap
     ethr =  1.00E-02,  avg # of iterations =  3.0

     negative rho (up, down):  1.773E-01 0.000E+00

     total cpu time spent up to now is        3.0 secs

     total energy              =   -2928.70307754 Ry
     Harris-Foulkes estimate   =   -2930.03729029 Ry
     estimated scf accuracy    <       2.06806140 Ry

     iteration #  2     ecut=    20.00 Ry     beta= 0.50
     Davidson diagonalization with overlap
     ethr =  2.87E-03,  avg # of iterations =  2.0

     negative rho (up, down):  2.372E-01 0.000E+00

     total cpu time spent up to now is        3.8 secs

     total energy              =   -2929.21230054 Ry
     Harris-Foulkes estimate   =   -2929.44980991 Ry
     estimated scf accuracy    <       0.56009227 Ry

     iteration #  3     ecut=    20.00 Ry     beta= 0.50
     Davidson diagonalization with overlap
     ethr =  7.78E-04,  avg # of iterations =  2.0

     negative rho (up, down):  2.977E-01 0.000E+00

     total cpu time spent up to now is        4.7 secs

     total energy              =   -2929.28648873 Ry
     Harris-Foulkes estimate   =   -2929.33477524 Ry
     estimated scf accuracy    <       0.15071815 Ry

     iteration #  4     ecut=    20.00 Ry     beta= 0.50
     Davidson diagonalization with overlap
     ethr =  2.09E-04,  avg # of iterations =  3.0

     negative rho (up, down):  3.531E-01 0.000E+00

     total cpu time spent up to now is        5.6 secs

     total energy              =   -2929.32222886 Ry
     Harris-Foulkes estimate   =   -2929.32729248 Ry
     estimated scf accuracy    <       0.11565950 Ry

     iteration #  5     ecut=    20.00 Ry     beta= 0.50
     Davidson diagonalization with overlap
     ethr =  1.61E-04,  avg # of iterations =  2.0

     negative rho (up, down):  3.770E-01 0.000E+00

     total cpu time spent up to now is        6.4 secs

     total energy              =   -2929.37402755 Ry
     Harris-Foulkes estimate   =   -2929.35639303 Ry
     estimated scf accuracy    <       0.08411948 Ry

     iteration #  6     ecut=    20.00 Ry     beta= 0.50
     Davidson diagonalization with overlap
     ethr =  1.17E-04,  avg # of iterations =  2.0

     negative rho (up, down):  3.387E-01 0.000E+00

     total cpu time spent up to now is        7.3 secs

     total energy              =   -2929.21322301 Ry
     Harris-Foulkes estimate   =   -2929.37998586 Ry
     estimated scf accuracy    <       0.09843003 Ry

     iteration #  7     ecut=    20.00 Ry     beta= 0.50
     Davidson diagonalization with overlap
     ethr =  1.17E-04,  avg # of iterations =  3.0

     negative rho (up, down):  3.471E-01 0.000E+00

     total cpu time spent up to now is        8.1 secs

     total energy              =   -2929.27075442 Ry
     Harris-Foulkes estimate   =   -2929.29391842 Ry
     estimated scf accuracy    <       0.02635403 Ry

     iteration #  8     ecut=    20.00 Ry     beta= 0.50
     Davidson diagonalization with overlap
     ethr =  3.66E-05,  avg # of iterations =  2.0

     negative rho (up, down):  3.504E-01 0.000E+00

     total cpu time spent up to now is        9.0 secs

     total energy              =   -2929.28351074 Ry
     Harris-Foulkes estimate   =   -2929.28338992 Ry
     estimated scf accuracy    <       0.00944385 Ry

     iteration #  9     ecut=    20.00 Ry     beta= 0.50
     Davidson diagonalization with overlap
     ethr =  1.31E-05,  avg # of iterations =  2.0

     negative rho (up, down):  3.493E-01 0.000E+00

     total cpu time spent up to now is        9.8 secs

     total energy              =   -2929.28129681 Ry
     Harris-Foulkes estimate   =   -2929.28567292 Ry
     estimated scf accuracy    <       0.00627420 Ry

     iteration # 10     ecut=    20.00 Ry     beta= 0.50
     Davidson diagonalization with overlap
     ethr =  8.71E-06,  avg # of iterations =  2.0

     negative rho (up, down):  3.482E-01 0.000E+00

     total cpu time spent up to now is       10.7 secs

     total energy              =   -2929.27415227 Ry
     Harris-Foulkes estimate   =   -2929.28243529 Ry
     estimated scf accuracy    <       0.00375420 Ry

     iteration # 11     ecut=    20.00 Ry     beta= 0.50
     Davidson diagonalization with overlap
     ethr =  5.21E-06,  avg # of iterations =  3.0

     negative rho (up, down):  3.479E-01 0.000E+00

     total cpu time spent up to now is       11.6 secs

     total energy              =   -2929.27756419 Ry
     Harris-Foulkes estimate   =   -2929.27819593 Ry
     estimated scf accuracy    <       0.00075696 Ry

     iteration # 12     ecut=    20.00 Ry     beta= 0.50
     Davidson diagonalization with overlap
     ethr =  1.05E-06,  avg # of iterations =  2.0

     negative rho (up, down):  3.477E-01 0.000E+00

     total cpu time spent up to now is       12.4 secs

     total energy              =   -2929.27796773 Ry
     Harris-Foulkes estimate   =   -2929.27779133 Ry
     estimated scf accuracy    <       0.00039686 Ry

     iteration # 13     ecut=    20.00 Ry     beta= 0.50
     Davidson diagonalization with overlap
     ethr =  5.51E-07,  avg # of iterations =  2.0

     negative rho (up, down):  3.475E-01 0.000E+00

     total cpu time spent up to now is       13.3 secs

     total energy              =   -2929.27730137 Ry
     Harris-Foulkes estimate   =   -2929.27796823 Ry
     estimated scf accuracy    <       0.00053627 Ry

     iteration # 14     ecut=    20.00 Ry     beta= 0.50
     Davidson diagonalization with overlap
     ethr =  5.51E-07,  avg # of iterations =  2.0

     negative rho (up, down):  3.477E-01 0.000E+00

     total cpu time spent up to now is       14.2 secs

     total energy              =   -2929.27704970 Ry
     Harris-Foulkes estimate   =   -2929.27750766 Ry
     estimated scf accuracy    <       0.00023742 Ry

     iteration # 15     ecut=    20.00 Ry     beta= 0.50
     Davidson diagonalization with overlap
     ethr =  3.30E-07,  avg # of iterations =  3.0

     negative rho (up, down):  3.472E-01 0.000E+00

     total cpu time spent up to now is       15.1 secs

     total energy              =   -2929.27712671 Ry
     Harris-Foulkes estimate   =   -2929.27714749 Ry
     estimated scf accuracy    <       0.00007005 Ry

     iteration # 16     ecut=    20.00 Ry     beta= 0.50
     Davidson diagonalization with overlap
     ethr =  9.73E-08,  avg # of iterations =  2.0

     negative rho (up, down):  3.471E-01 0.000E+00

     total cpu time spent up to now is       15.9 secs

     total energy              =   -2929.27710933 Ry
     Harris-Foulkes estimate   =   -2929.27709865 Ry
     estimated scf accuracy    <       0.00003778 Ry

     iteration # 17     ecut=    20.00 Ry     beta= 0.50
     Davidson diagonalization with overlap
     ethr =  5.25E-08,  avg # of iterations =  2.0

     negative rho (up, down):  3.471E-01 0.000E+00

     total cpu time spent up to now is       16.8 secs

     total energy              =   -2929.27699175 Ry
     Harris-Foulkes estimate   =   -2929.27710275 Ry
     estimated scf accuracy    <       0.00004638 Ry

     iteration # 18     ecut=    20.00 Ry     beta= 0.50
     Davidson diagonalization with overlap
     ethr =  5.25E-08,  avg # of iterations =  3.0

     negative rho (up, down):  3.470E-01 0.000E+00

     total cpu time spent up to now is       17.6 secs

     total energy              =   -2929.27702736 Ry
     Harris-Foulkes estimate   =   -2929.27703157 Ry
     estimated scf accuracy    <       0.00001176 Ry

     iteration # 19     ecut=    20.00 Ry     beta= 0.50
     Davidson diagonalization with overlap
     ethr =  1.63E-08,  avg # of iterations =  2.0

     negative rho (up, down):  3.469E-01 0.000E+00

     total cpu time spent up to now is       18.5 secs

     End of self-consistent calculation

          k = 0.0000 0.0000 0.0000 (  1952 PWs)   bands (ev):

   -11.7269 -10.8907 -10.5510 -10.2518  -4.6751  -4.4260  -4.3289  -3.9145
    -3.2635  -3.0936  -2.8839  -2.7404  -2.5016  -2.4068  -2.3056  -2.1470
    -2.1367  -2.1011  -2.0761  -2.0405  -1.9284  -1.8803  -1.7989  -1.7087
    -1.5730  -1.2049  -0.6643  -0.4195  -0.0646   0.0968   0.4054   0.4562
     0.6107   0.7665   0.9147   1.0423   1.3932   2.6828   3.5383   4.0647
     4.7982   5.4325   6.2448

     the Fermi energy is     1.2376 ev

!    total energy              =   -2929.27703834 Ry
     Harris-Foulkes estimate   =   -2929.27703591 Ry
     estimated scf accuracy    <       0.00000954 Ry

     total all-electron energy =    -99453.131028 Ry

     The total energy is the sum of the following terms:

     one-electron contribution =    -186.18923968 Ry
     hartree contribution      =     147.53598359 Ry
     xc contribution           =    -151.37716376 Ry
     ewald contribution        =    -246.90297933 Ry
     one-center paw contrib.   =   -2492.32537823 Ry
     smearing contrib. (-TS)   =      -0.01826093 Ry

     convergence has been achieved in  19 iterations

     negative rho (up, down):  3.469E-01 0.000E+00

     Forces acting on atoms (cartesian axes, Ry/au):

     atom    1 type  1   force =    -0.01562400    0.01422802    0.05081761
     atom    2 type  2   force =     0.05727645   -0.00528406   -0.11077830
     atom    3 type  1   force =     0.00220705   -0.00388283   -0.00266543
     atom    4 type  2   force =     0.00411314   -0.01654130    0.00424268
     atom    5 type  1   force =    -0.15284496    0.50386272   -0.35267908
     atom    6 type  2   force =    -0.03196853    0.03792018    0.04070752
     atom    7 type  1   force =    -0.00329247    0.00406828   -0.00034430
     atom    8 type  2   force =     0.14013330   -0.53437101    0.37069931

     Total force =     0.931300     Total SCF correction =     0.003609


     Computing stress (Cartesian axis) and pressure


     negative rho (up, down):  3.469E-01 0.000E+00
          total   stress  (Ry/bohr**3)                   (kbar)     P=-1196.48
  -0.00843164  -0.00026228   0.00005209      -1240.34    -38.58      7.66
  -0.00026228  -0.00789826  -0.00036032        -38.58  -1161.87    -53.01
   0.00005209  -0.00036032  -0.00807067          7.66    -53.01  -1187.24


     Writing output data file AgI.save/
 
     init_run     :      1.19s CPU      1.25s WALL (       1 calls)
     electrons    :     16.33s CPU     16.40s WALL (       1 calls)
     forces       :      0.04s CPU      0.04s WALL (       1 calls)
     stress       :      0.14s CPU      0.14s WALL (       1 calls)

     Called by init_run:
     wfcinit      :      0.02s CPU      0.02s WALL (       1 calls)
     potinit      :      0.78s CPU      0.82s WALL (       1 calls)
     hinit0       :      0.38s CPU      0.38s WALL (       1 calls)

     Called by electrons:
     c_bands      :      0.99s CPU      1.01s WALL (      19 calls)
     sum_band     :      0.44s CPU      0.45s WALL (      19 calls)
     v_of_rho     :      0.14s CPU      0.15s WALL (      20 calls)
     newd         :      0.24s CPU      0.24s WALL (      20 calls)
     PAW_pot      :     15.27s CPU     15.35s WALL (      20 calls)
     mix_rho      :      0.02s CPU      0.02s WALL (      19 calls)

     Called by c_bands:
     init_us_2    :      0.03s CPU      0.03s WALL (      39 calls)
     regterg      :      0.74s CPU      0.75s WALL (      19 calls)

     Called by sum_band:
     sum_band:bec :      0.00s CPU      0.00s WALL (      19 calls)
     addusdens    :      0.31s CPU      0.31s WALL (      19 calls)

     Called by *egterg:
     h_psi        :      0.52s CPU      0.52s WALL (      64 calls)
     s_psi        :      0.03s CPU      0.03s WALL (      64 calls)
     g_psi        :      0.00s CPU      0.00s WALL (      44 calls)
     rdiaghg      :      0.09s CPU      0.09s WALL (      63 calls)

     Called by h_psi:
     h_psi:pot    :      0.51s CPU      0.51s WALL (      64 calls)
     h_psi:calbec :      0.04s CPU      0.04s WALL (      64 calls)
     vloc_psi     :      0.44s CPU      0.44s WALL (      64 calls)
     add_vuspsi   :      0.03s CPU      0.03s WALL (      64 calls)

     General routines
     calbec       :      0.06s CPU      0.06s WALL (      88 calls)
     fft          :      0.04s CPU      0.04s WALL (     200 calls)
     ffts         :      0.00s CPU      0.00s WALL (      19 calls)
     fftw         :      0.48s CPU      0.49s WALL (    2378 calls)
 
     Parallel routines
 
     PWSCF        :     18.53s CPU     18.73s WALL

 
   This run was terminated on:  23:14:51  24Sep2019            

=------------------------------------------------------------------------------=
   JOB DONE.
=------------------------------------------------------------------------------=
