
     Program PWSCF v.6.3 starts on 20Sep2019 at 22:48:35 

     This program is part of the open-source Quantum ESPRESSO suite
     for quantum simulation of materials; please cite
         "P. Giannozzi et al., J. Phys.:Condens. Matter 21 395502 (2009);
         "P. Giannozzi et al., J. Phys.:Condens. Matter 29 465901 (2017);
          URL http://www.quantum-espresso.org", 
     in publications or presentations arising from this work. More details at
     http://www.quantum-espresso.org/quote

     Parallel version (MPI), running on     1 processors

     MPI processes distributed on     1 nodes
     Waiting for input...
     Reading input from standard input
Warning: card &IONS ignored
Warning: card / ignored
Warning: card &CELL ignored
Warning: card / ignored

     Current dimensions of program PWSCF are:
     Max number of different atomic species (ntypx) = 10
     Max number of k-points (npk) =  40000
     Max angular momentum in pseudopotentials (lmaxx) =  3
               file Ag.pbe-n-kjpaw_psl.1.0.0.UPF: wavefunction(s)  5S 5P renormalized
               file I.pbe-n-kjpaw_psl.1.0.0.UPF: wavefunction(s)  5S renormalized

     gamma-point specific algorithms are used

     Subspace diagonalization in iterative solution of the eigenvalue problem:
     a serial algorithm will be used

 
     G-vector sticks info
     --------------------
     sticks:   dense  smooth     PW     G-vecs:    dense   smooth      PW
     Sum        1045    1045    517                22419    22419    7823
 


     bravais-lattice index     =            0
     lattice parameter (alat)  =      19.5231  a.u.
     unit-cell volume          =    5261.7949 (a.u.)^3
     number of atoms/cell      =           16
     number of atomic types    =            2
     number of electrons       =       144.00
     number of Kohn-Sham states=           86
     kinetic-energy cutoff     =      20.0000  Ry
     charge density cutoff     =      40.0000  Ry
     convergence threshold     =      1.0E-05
     mixing beta               =       0.5000
     number of iterations used =            8  plain     mixing
     Exchange-correlation      = SLA PW PBX PBC ( 1  4  3  4 0 0)

     celldm(1)=  19.523139  celldm(2)=   0.000000  celldm(3)=   0.000000
     celldm(4)=   0.000000  celldm(5)=   0.000000  celldm(6)=   0.000000

     crystal axes: (cart. coord. in units of alat)
               a(1) = (   1.000000   0.000000   0.000000 )  
               a(2) = (   0.500000   0.866025   0.000000 )  
               a(3) = (   0.500000   0.288675   0.816497 )  

     reciprocal axes: (cart. coord. in units 2 pi/alat)
               b(1) = (  1.000000 -0.577350 -0.408248 )  
               b(2) = (  0.000000  1.154701 -0.408248 )  
               b(3) = (  0.000000  0.000000  1.224745 )  


     PseudoPot. # 1 for Ag read from file:
     /n/home08/xiey/q-e/pseudo/Ag.pbe-n-kjpaw_psl.1.0.0.UPF
     MD5 check sum: 51099775af2a3182a6a1caffb86952a3
     Pseudo is Projector augmented-wave + core cor, Zval = 11.0
     Generated using "atomic" code by A. Dal Corso v.6.2.2
     Shape of augmentation charge: PSQ
     Using radial grid of 1237 points,  6 beta functions with: 
                l(1) =   0
                l(2) =   0
                l(3) =   1
                l(4) =   1
                l(5) =   2
                l(6) =   2
     Q(r) pseudized with 0 coefficients 


     PseudoPot. # 2 for I  read from file:
     /n/home08/xiey/q-e/pseudo/I.pbe-n-kjpaw_psl.1.0.0.UPF
     MD5 check sum: cd3d296c3308a581e1559a0c8a554cb5
     Pseudo is Projector augmented-wave + core cor, Zval =  7.0
     Generated using "atomic" code by A. Dal Corso v.6.3
     Shape of augmentation charge: PSQ
     Using radial grid of 1247 points,  6 beta functions with: 
                l(1) =   0
                l(2) =   0
                l(3) =   1
                l(4) =   1
                l(5) =   2
                l(6) =   2
     Q(r) pseudized with 0 coefficients 


     atomic species   valence    mass     pseudopotential
        Ag            11.00   107.86820     Ag( 1.00)
        I              7.00   126.90447     I ( 1.00)

     No symmetry found



   Cartesian axes

     site n.     atom                  positions (alat units)
         1           Ag  tau(   1) = (   0.0547311  -0.0120008  -0.0453864  )
         2           I   tau(   2) = (   0.2334107   0.2207681   0.1661290  )
         3           Ag  tau(   3) = (   0.2939367   0.1314640   0.4393915  )
         4           I   tau(   4) = (   0.5587304   0.2912176   0.4496951  )
         5           Ag  tau(   5) = (   0.2580991   0.4144327   0.0127693  )
         6           I   tau(   6) = (   0.5068955   0.5116384   0.0984063  )
         7           Ag  tau(   7) = (   0.5688672   0.5702478   0.4525331  )
         8           I   tau(   8) = (   0.6942646   0.8322506   0.5240458  )
         9           Ag  tau(   9) = (   0.4824095   0.0419263   0.0178175  )
        10           I   tau(  10) = (   0.8000505   0.1667955   0.1196316  )
        11           Ag  tau(  11) = (   0.7244155   0.0878601   0.3266053  )
        12           I   tau(  12) = (   0.9516370   0.3089040   0.5745285  )
        13           Ag  tau(  13) = (   0.7294443   0.4453249  -0.0225568  )
        14           I   tau(  14) = (   1.0101108   0.5080006   0.1223903  )
        15           Ag  tau(  15) = (   0.9793383   0.5398261   0.3816465  )
        16           I   tau(  16) = (   1.2109999   0.7727510   0.5362022  )

     number of k points=     1  gaussian smearing, width (Ry)=  0.0200
                       cart. coord. in units 2pi/alat
        k(    1) = (   0.0000000   0.0000000   0.0000000), wk =   2.0000000

     Dense  grid:    11210 G-vectors     FFT dimensions: (  40,  40,  40)

     Estimated max dynamical RAM per process >     100.71 MB

     Check: negative core charge=   -0.000019

     Initial potential from superposition of free atoms

     starting charge  143.99620, renormalised to  144.00000

     negative rho (up, down):  1.906E-01 0.000E+00
     Starting wfcs are  104 randomized atomic wfcs
     Checking if some PAW data can be deallocated... 

     total cpu time spent up to now is        3.1 secs

     Self-consistent Calculation

     iteration #  1     ecut=    20.00 Ry     beta= 0.50
     Davidson diagonalization with overlap
     ethr =  1.00E-02,  avg # of iterations =  3.0

     negative rho (up, down):  3.365E-01 0.000E+00

     total cpu time spent up to now is        5.0 secs

     total energy              =   -5858.60339140 Ry
     Harris-Foulkes estimate   =   -5860.89008658 Ry
     estimated scf accuracy    <       3.60250104 Ry

     iteration #  2     ecut=    20.00 Ry     beta= 0.50
     Davidson diagonalization with overlap
     ethr =  2.50E-03,  avg # of iterations =  2.0

     negative rho (up, down):  4.684E-01 0.000E+00

     total cpu time spent up to now is        6.9 secs

     total energy              =   -5859.45263658 Ry
     Harris-Foulkes estimate   =   -5859.75998774 Ry
     estimated scf accuracy    <       0.74885480 Ry

     iteration #  3     ecut=    20.00 Ry     beta= 0.50
     Davidson diagonalization with overlap
     ethr =  5.20E-04,  avg # of iterations =  2.0

     negative rho (up, down):  6.170E-01 0.000E+00

     total cpu time spent up to now is        8.9 secs

     total energy              =   -5859.56226033 Ry
     Harris-Foulkes estimate   =   -5859.58515250 Ry
     estimated scf accuracy    <       0.14228857 Ry

     iteration #  4     ecut=    20.00 Ry     beta= 0.50
     Davidson diagonalization with overlap
     ethr =  9.88E-05,  avg # of iterations =  5.0

     negative rho (up, down):  7.328E-01 0.000E+00

     total cpu time spent up to now is       10.9 secs

     total energy              =   -5859.65954958 Ry
     Harris-Foulkes estimate   =   -5859.61040644 Ry
     estimated scf accuracy    <       0.12599612 Ry

     iteration #  5     ecut=    20.00 Ry     beta= 0.50
     Davidson diagonalization with overlap
     ethr =  8.75E-05,  avg # of iterations =  2.0

     negative rho (up, down):  6.539E-01 0.000E+00

     total cpu time spent up to now is       12.8 secs

     total energy              =   -5859.52357830 Ry
     Harris-Foulkes estimate   =   -5859.70200320 Ry
     estimated scf accuracy    <       0.18341365 Ry

     iteration #  6     ecut=    20.00 Ry     beta= 0.50
     Davidson diagonalization with overlap
     ethr =  8.75E-05,  avg # of iterations =  3.0

     negative rho (up, down):  6.549E-01 0.000E+00

     total cpu time spent up to now is       14.7 secs

     total energy              =   -5859.42011413 Ry
     Harris-Foulkes estimate   =   -5859.58063202 Ry
     estimated scf accuracy    <       0.07920870 Ry

     iteration #  7     ecut=    20.00 Ry     beta= 0.50
     Davidson diagonalization with overlap
     ethr =  5.50E-05,  avg # of iterations =  3.0

     negative rho (up, down):  6.620E-01 0.000E+00

     total cpu time spent up to now is       16.6 secs

     total energy              =   -5859.51393767 Ry
     Harris-Foulkes estimate   =   -5859.51054108 Ry
     estimated scf accuracy    <       0.00869569 Ry

     iteration #  8     ecut=    20.00 Ry     beta= 0.50
     Davidson diagonalization with overlap
     ethr =  6.04E-06,  avg # of iterations =  5.0

     negative rho (up, down):  6.589E-01 0.000E+00

     total cpu time spent up to now is       18.5 secs

     total energy              =   -5859.50676338 Ry
     Harris-Foulkes estimate   =   -5859.51831062 Ry
     estimated scf accuracy    <       0.01287799 Ry

     iteration #  9     ecut=    20.00 Ry     beta= 0.50
     Davidson diagonalization with overlap
     ethr =  6.04E-06,  avg # of iterations =  2.0

     negative rho (up, down):  6.556E-01 0.000E+00

     total cpu time spent up to now is       20.4 secs

     total energy              =   -5859.49463928 Ry
     Harris-Foulkes estimate   =   -5859.50954521 Ry
     estimated scf accuracy    <       0.00665432 Ry

     iteration # 10     ecut=    20.00 Ry     beta= 0.50
     Davidson diagonalization with overlap
     ethr =  4.62E-06,  avg # of iterations =  3.0

     negative rho (up, down):  6.576E-01 0.000E+00

     total cpu time spent up to now is       22.3 secs

     total energy              =   -5859.50143274 Ry
     Harris-Foulkes estimate   =   -5859.50196875 Ry
     estimated scf accuracy    <       0.00116466 Ry

     iteration # 11     ecut=    20.00 Ry     beta= 0.50
     Davidson diagonalization with overlap
     ethr =  8.09E-07,  avg # of iterations =  3.0

     negative rho (up, down):  6.573E-01 0.000E+00

     total cpu time spent up to now is       24.2 secs

     total energy              =   -5859.50219116 Ry
     Harris-Foulkes estimate   =   -5859.50187522 Ry
     estimated scf accuracy    <       0.00100342 Ry

     iteration # 12     ecut=    20.00 Ry     beta= 0.50
     Davidson diagonalization with overlap
     ethr =  6.97E-07,  avg # of iterations =  2.0

     negative rho (up, down):  6.571E-01 0.000E+00

     total cpu time spent up to now is       26.0 secs

     total energy              =   -5859.49988467 Ry
     Harris-Foulkes estimate   =   -5859.50226282 Ry
     estimated scf accuracy    <       0.00126986 Ry

     iteration # 13     ecut=    20.00 Ry     beta= 0.50
     Davidson diagonalization with overlap
     ethr =  6.97E-07,  avg # of iterations =  3.0

     negative rho (up, down):  6.563E-01 0.000E+00

     total cpu time spent up to now is       27.9 secs

     total energy              =   -5859.50017323 Ry
     Harris-Foulkes estimate   =   -5859.50068524 Ry
     estimated scf accuracy    <       0.00023961 Ry

     iteration # 14     ecut=    20.00 Ry     beta= 0.50
     Davidson diagonalization with overlap
     ethr =  1.66E-07,  avg # of iterations =  3.0

     negative rho (up, down):  6.561E-01 0.000E+00

     total cpu time spent up to now is       29.8 secs

     total energy              =   -5859.50013702 Ry
     Harris-Foulkes estimate   =   -5859.50009079 Ry
     estimated scf accuracy    <       0.00008389 Ry

     iteration # 15     ecut=    20.00 Ry     beta= 0.50
     Davidson diagonalization with overlap
     ethr =  5.83E-08,  avg # of iterations =  2.0

     negative rho (up, down):  6.560E-01 0.000E+00

     total cpu time spent up to now is       31.7 secs

     total energy              =   -5859.49993073 Ry
     Harris-Foulkes estimate   =   -5859.50015103 Ry
     estimated scf accuracy    <       0.00013092 Ry

     iteration # 16     ecut=    20.00 Ry     beta= 0.50
     Davidson diagonalization with overlap
     ethr =  5.83E-08,  avg # of iterations =  3.0

     negative rho (up, down):  6.555E-01 0.000E+00

     total cpu time spent up to now is       33.6 secs

     total energy              =   -5859.49989330 Ry
     Harris-Foulkes estimate   =   -5859.49995465 Ry
     estimated scf accuracy    <       0.00003549 Ry

     iteration # 17     ecut=    20.00 Ry     beta= 0.50
     Davidson diagonalization with overlap
     ethr =  2.46E-08,  avg # of iterations =  3.0

     negative rho (up, down):  6.554E-01 0.000E+00

     total cpu time spent up to now is       35.5 secs

     total energy              =   -5859.49990281 Ry
     Harris-Foulkes estimate   =   -5859.49989524 Ry
     estimated scf accuracy    <       0.00001220 Ry

     iteration # 18     ecut=    20.00 Ry     beta= 0.50
     Davidson diagonalization with overlap
     ethr =  8.48E-09,  avg # of iterations =  2.0

     negative rho (up, down):  6.555E-01 0.000E+00

     total cpu time spent up to now is       37.4 secs

     total energy              =   -5859.49986124 Ry
     Harris-Foulkes estimate   =   -5859.49988924 Ry
     estimated scf accuracy    <       0.00001918 Ry

     iteration # 19     ecut=    20.00 Ry     beta= 0.50
     Davidson diagonalization with overlap
     ethr =  8.48E-09,  avg # of iterations =  3.0

     negative rho (up, down):  6.551E-01 0.000E+00

     total cpu time spent up to now is       39.2 secs

     End of self-consistent calculation

          k = 0.0000 0.0000 0.0000 (  3912 PWs)   bands (ev):

   -11.4624 -10.9593 -10.7659 -10.6804 -10.4260 -10.4061 -10.3387 -10.3026
    -4.3024  -3.6133  -3.5153  -3.4934  -3.0562  -2.9791  -2.8160  -2.7936
    -2.7557  -2.6867  -2.6355  -2.5583  -2.5029  -2.4564  -2.4075  -2.3777
    -2.3543  -2.3362  -2.2988  -2.2727  -2.2496  -2.2310  -2.2027  -2.1952
    -2.1833  -2.1394  -2.1333  -2.1065  -2.0840  -2.0791  -2.0431  -2.0275
    -1.9826  -1.9665  -1.9225  -1.8803  -1.8410  -1.8216  -1.8093  -1.7937
    -1.5601  -1.4067  -1.2845  -1.2052  -1.0550  -0.8918  -0.7916  -0.4904
    -0.3673  -0.3099  -0.1730  -0.0822   0.0642   0.1436   0.1919   0.2698
     0.3751   0.4714   0.5139   0.6105   0.7063   0.7271   0.8852   0.8913
     1.4222   2.3157   2.6894   3.2415   3.3350   3.7984   4.0155   4.3830
     4.5561   4.8106   5.2048   5.3900   5.6474   5.9338

     the Fermi energy is     1.1978 ev

!    total energy              =   -5859.49990779 Ry
     Harris-Foulkes estimate   =   -5859.49988820 Ry
     estimated scf accuracy    <       0.00000724 Ry

     total all-electron energy =   -198907.207888 Ry

     The total energy is the sum of the following terms:

     one-electron contribution =    -355.57145709 Ry
     hartree contribution      =     286.70273227 Ry
     xc contribution           =    -302.11003836 Ry
     ewald contribution        =    -504.12841623 Ry
     one-center paw contrib.   =   -4984.37968707 Ry
     smearing contrib. (-TS)   =      -0.01304132 Ry

     convergence has been achieved in  19 iterations

     negative rho (up, down):  6.551E-01 0.000E+00

     Forces acting on atoms (cartesian axes, Ry/au):

     atom    1 type  1   force =     0.00027322    0.00790856   -0.01125136
     atom    2 type  2   force =     0.00052323   -0.06759356    0.02332718
     atom    3 type  1   force =     0.15773182    0.25898887   -0.14202405
     atom    4 type  2   force =    -0.02037717    0.02991157    0.03560885
     atom    5 type  1   force =     0.00865558    0.04863254   -0.03225666
     atom    6 type  2   force =    -0.00693559    0.01184921    0.00092119
     atom    7 type  1   force =     0.02960935   -0.01427389   -0.01229570
     atom    8 type  2   force =    -0.16613562   -0.27632694    0.14071392
     atom    9 type  1   force =    -0.01077926    0.01018993    0.00431088
     atom   10 type  2   force =     0.02794945    0.01799800   -0.08653871
     atom   11 type  1   force =    -0.01486405   -0.04587881    0.09214494
     atom   12 type  2   force =     0.00730870    0.01463575    0.01366683
     atom   13 type  1   force =    -0.00052477   -0.00270017    0.00276258
     atom   14 type  2   force =    -0.01175095    0.02441604    0.00219163
     atom   15 type  1   force =     0.00832816   -0.02037480    0.00052957
     atom   16 type  2   force =    -0.00901210    0.00261771   -0.03181108

     Total force =     0.520680     Total SCF correction =     0.002502


     Computing stress (Cartesian axis) and pressure


     negative rho (up, down):  6.551E-01 0.000E+00
          total   stress  (Ry/bohr**3)                   (kbar)     P=-1258.40
  -0.00859280   0.00007460  -0.00009876      -1264.04     10.97    -14.53
   0.00007460  -0.00849781  -0.00013376         10.97  -1250.07    -19.68
  -0.00009876  -0.00013376  -0.00857260        -14.53    -19.68  -1261.07


     Writing output data file AgI.save/
 
     init_run     :      2.06s CPU      2.17s WALL (       1 calls)
     electrons    :     35.97s CPU     36.19s WALL (       1 calls)
     forces       :      0.10s CPU      0.10s WALL (       1 calls)
     stress       :      0.54s CPU      0.55s WALL (       1 calls)

     Called by init_run:
     wfcinit      :      0.10s CPU      0.10s WALL (       1 calls)
     potinit      :      1.55s CPU      1.64s WALL (       1 calls)
     hinit0       :      0.38s CPU      0.38s WALL (       1 calls)

     Called by electrons:
     c_bands      :      4.93s CPU      5.02s WALL (      19 calls)
     sum_band     :      1.38s CPU      1.40s WALL (      19 calls)
     v_of_rho     :      0.28s CPU      0.29s WALL (      20 calls)
     newd         :      0.55s CPU      0.56s WALL (      20 calls)
     PAW_pot      :     30.33s CPU     30.51s WALL (      20 calls)
     mix_rho      :      0.04s CPU      0.04s WALL (      19 calls)

     Called by c_bands:
     init_us_2    :      0.12s CPU      0.13s WALL (      39 calls)
     regterg      :      3.96s CPU      4.03s WALL (      19 calls)

     Called by sum_band:
     sum_band:bec :      0.00s CPU      0.00s WALL (      19 calls)
     addusdens    :      0.79s CPU      0.80s WALL (      19 calls)

     Called by *egterg:
     h_psi        :      2.44s CPU      2.45s WALL (      74 calls)
     s_psi        :      0.30s CPU      0.30s WALL (      74 calls)
     g_psi        :      0.02s CPU      0.02s WALL (      54 calls)
     rdiaghg      :      0.41s CPU      0.42s WALL (      73 calls)

     Called by h_psi:
     h_psi:pot    :      2.40s CPU      2.42s WALL (      74 calls)
     h_psi:calbec :      0.32s CPU      0.32s WALL (      74 calls)
     vloc_psi     :      1.77s CPU      1.78s WALL (      74 calls)
     add_vuspsi   :      0.32s CPU      0.32s WALL (      74 calls)

     General routines
     calbec       :      0.46s CPU      0.46s WALL (      98 calls)
     fft          :      0.08s CPU      0.08s WALL (     200 calls)
     ffts         :      0.01s CPU      0.01s WALL (      19 calls)
     fftw         :      1.90s CPU      1.91s WALL (    4609 calls)
 
     Parallel routines
 
     PWSCF        :     39.55s CPU     39.96s WALL

 
   This run was terminated on:  22:49:15  20Sep2019            

=------------------------------------------------------------------------------=
   JOB DONE.
=------------------------------------------------------------------------------=
