
     Program PWSCF v.6.3 starts on 22Sep2019 at 21:52:38 

     This program is part of the open-source Quantum ESPRESSO suite
     for quantum simulation of materials; please cite
         "P. Giannozzi et al., J. Phys.:Condens. Matter 21 395502 (2009);
         "P. Giannozzi et al., J. Phys.:Condens. Matter 29 465901 (2017);
          URL http://www.quantum-espresso.org", 
     in publications or presentations arising from this work. More details at
     http://www.quantum-espresso.org/quote

     Parallel version (MPI), running on     1 processors

     MPI processes distributed on     1 nodes
     Waiting for input...
     Reading input from standard input
Warning: card &IONS ignored
Warning: card / ignored
Warning: card &CELL ignored
Warning: card / ignored

     Current dimensions of program PWSCF are:
     Max number of different atomic species (ntypx) = 10
     Max number of k-points (npk) =  40000
     Max angular momentum in pseudopotentials (lmaxx) =  3
               file Ag.pbe-n-kjpaw_psl.1.0.0.UPF: wavefunction(s)  5S 5P renormalized
               file I.pbe-n-kjpaw_psl.1.0.0.UPF: wavefunction(s)  5S renormalized

     gamma-point specific algorithms are used

     Subspace diagonalization in iterative solution of the eigenvalue problem:
     a serial algorithm will be used

 
     G-vector sticks info
     --------------------
     sticks:   dense  smooth     PW     G-vecs:    dense   smooth      PW
     Sum        1045    1045    517                22419    22419    7823
 


     bravais-lattice index     =            0
     lattice parameter (alat)  =      19.5231  a.u.
     unit-cell volume          =    5261.7949 (a.u.)^3
     number of atoms/cell      =           16
     number of atomic types    =            2
     number of electrons       =       144.00
     number of Kohn-Sham states=           86
     kinetic-energy cutoff     =      20.0000  Ry
     charge density cutoff     =      40.0000  Ry
     convergence threshold     =      1.0E-05
     mixing beta               =       0.5000
     number of iterations used =            8  plain     mixing
     Exchange-correlation      = SLA PW PBX PBC ( 1  4  3  4 0 0)

     celldm(1)=  19.523139  celldm(2)=   0.000000  celldm(3)=   0.000000
     celldm(4)=   0.000000  celldm(5)=   0.000000  celldm(6)=   0.000000

     crystal axes: (cart. coord. in units of alat)
               a(1) = (   1.000000   0.000000   0.000000 )  
               a(2) = (   0.500000   0.866025   0.000000 )  
               a(3) = (   0.500000   0.288675   0.816497 )  

     reciprocal axes: (cart. coord. in units 2 pi/alat)
               b(1) = (  1.000000 -0.577350 -0.408248 )  
               b(2) = (  0.000000  1.154701 -0.408248 )  
               b(3) = (  0.000000  0.000000  1.224745 )  


     PseudoPot. # 1 for Ag read from file:
     /n/home08/xiey/q-e/pseudo/Ag.pbe-n-kjpaw_psl.1.0.0.UPF
     MD5 check sum: 51099775af2a3182a6a1caffb86952a3
     Pseudo is Projector augmented-wave + core cor, Zval = 11.0
     Generated using "atomic" code by A. Dal Corso v.6.2.2
     Shape of augmentation charge: PSQ
     Using radial grid of 1237 points,  6 beta functions with: 
                l(1) =   0
                l(2) =   0
                l(3) =   1
                l(4) =   1
                l(5) =   2
                l(6) =   2
     Q(r) pseudized with 0 coefficients 


     PseudoPot. # 2 for I  read from file:
     /n/home08/xiey/q-e/pseudo/I.pbe-n-kjpaw_psl.1.0.0.UPF
     MD5 check sum: cd3d296c3308a581e1559a0c8a554cb5
     Pseudo is Projector augmented-wave + core cor, Zval =  7.0
     Generated using "atomic" code by A. Dal Corso v.6.3
     Shape of augmentation charge: PSQ
     Using radial grid of 1247 points,  6 beta functions with: 
                l(1) =   0
                l(2) =   0
                l(3) =   1
                l(4) =   1
                l(5) =   2
                l(6) =   2
     Q(r) pseudized with 0 coefficients 


     atomic species   valence    mass     pseudopotential
        Ag            11.00   107.86820     Ag( 1.00)
        I              7.00   126.90447     I ( 1.00)

     No symmetry found



   Cartesian axes

     site n.     atom                  positions (alat units)
         1           Ag  tau(   1) = (   0.0534466   0.0186141  -0.0299676  )
         2           I   tau(   2) = (   0.2230701   0.1985628   0.1675052  )
         3           Ag  tau(   3) = (   0.2617760   0.1375795   0.4630031  )
         4           I   tau(   4) = (   0.5381709   0.3088601   0.4605019  )
         5           Ag  tau(   5) = (   0.2633020   0.4513406   0.0708259  )
         6           I   tau(   6) = (   0.5450327   0.5711375   0.0998480  )
         7           Ag  tau(   7) = (   0.5570676   0.5594212   0.4268137  )
         8           I   tau(   8) = (   0.7407408   0.8073415   0.5367727  )
         9           Ag  tau(   9) = (   0.4646573  -0.0099197  -0.0478623  )
        10           I   tau(  10) = (   0.8140777   0.1636676   0.0980882  )
        11           Ag  tau(  11) = (   0.6935902   0.1065707   0.3495595  )
        12           I   tau(  12) = (   0.9142692   0.2520008   0.4967761  )
        13           Ag  tau(  13) = (   0.7051410   0.4439865   0.0038533  )
        14           I   tau(  14) = (   1.0079546   0.5421098   0.1313769  )
        15           Ag  tau(  15) = (   0.9309423   0.5476712   0.3856592  )
        16           I   tau(  16) = (   1.1996717   0.7031154   0.5527938  )

     number of k points=     1  gaussian smearing, width (Ry)=  0.0200
                       cart. coord. in units 2pi/alat
        k(    1) = (   0.0000000   0.0000000   0.0000000), wk =   2.0000000

     Dense  grid:    11210 G-vectors     FFT dimensions: (  40,  40,  40)

     Estimated max dynamical RAM per process >     100.71 MB

     Check: negative core charge=   -0.000018

     Initial potential from superposition of free atoms

     starting charge  143.99620, renormalised to  144.00000

     negative rho (up, down):  1.936E-01 0.000E+00
     Starting wfcs are  104 randomized atomic wfcs
     Checking if some PAW data can be deallocated... 

     total cpu time spent up to now is        3.2 secs

     Self-consistent Calculation

     iteration #  1     ecut=    20.00 Ry     beta= 0.50
     Davidson diagonalization with overlap
     ethr =  1.00E-02,  avg # of iterations =  3.0

     negative rho (up, down):  3.413E-01 0.000E+00

     total cpu time spent up to now is        5.1 secs

     total energy              =   -5858.57673708 Ry
     Harris-Foulkes estimate   =   -5860.85628872 Ry
     estimated scf accuracy    <       3.59978825 Ry

     iteration #  2     ecut=    20.00 Ry     beta= 0.50
     Davidson diagonalization with overlap
     ethr =  2.50E-03,  avg # of iterations =  2.0

     negative rho (up, down):  4.679E-01 0.000E+00

     total cpu time spent up to now is        7.0 secs

     total energy              =   -5859.41468306 Ry
     Harris-Foulkes estimate   =   -5859.73215723 Ry
     estimated scf accuracy    <       0.77641774 Ry

     iteration #  3     ecut=    20.00 Ry     beta= 0.50
     Davidson diagonalization with overlap
     ethr =  5.39E-04,  avg # of iterations =  2.0

     negative rho (up, down):  6.091E-01 0.000E+00

     total cpu time spent up to now is        8.9 secs

     total energy              =   -5859.54090297 Ry
     Harris-Foulkes estimate   =   -5859.56952400 Ry
     estimated scf accuracy    <       0.16632144 Ry

     iteration #  4     ecut=    20.00 Ry     beta= 0.50
     Davidson diagonalization with overlap
     ethr =  1.16E-04,  avg # of iterations =  5.0

     negative rho (up, down):  7.495E-01 0.000E+00

     total cpu time spent up to now is       10.9 secs

     total energy              =   -5859.64533134 Ry
     Harris-Foulkes estimate   =   -5859.58989565 Ry
     estimated scf accuracy    <       0.13632176 Ry

     iteration #  5     ecut=    20.00 Ry     beta= 0.50
     Davidson diagonalization with overlap
     ethr =  9.47E-05,  avg # of iterations =  3.0

     negative rho (up, down):  6.640E-01 0.000E+00

     total cpu time spent up to now is       12.8 secs

     total energy              =   -5859.56272595 Ry
     Harris-Foulkes estimate   =   -5859.69759579 Ry
     estimated scf accuracy    <       0.21969536 Ry

     iteration #  6     ecut=    20.00 Ry     beta= 0.50
     Davidson diagonalization with overlap
     ethr =  9.47E-05,  avg # of iterations =  2.0

     negative rho (up, down):  6.485E-01 0.000E+00

     total cpu time spent up to now is       14.7 secs

     total energy              =   -5859.36296975 Ry
     Harris-Foulkes estimate   =   -5859.59539835 Ry
     estimated scf accuracy    <       0.12905030 Ry

     iteration #  7     ecut=    20.00 Ry     beta= 0.50
     Davidson diagonalization with overlap
     ethr =  8.96E-05,  avg # of iterations =  3.0

     negative rho (up, down):  6.570E-01 0.000E+00

     total cpu time spent up to now is       16.6 secs

     total energy              =   -5859.48743125 Ry
     Harris-Foulkes estimate   =   -5859.48754769 Ry
     estimated scf accuracy    <       0.01610165 Ry

     iteration #  8     ecut=    20.00 Ry     beta= 0.50
     Davidson diagonalization with overlap
     ethr =  1.12E-05,  avg # of iterations =  3.0

     negative rho (up, down):  6.560E-01 0.000E+00

     total cpu time spent up to now is       18.5 secs

     total energy              =   -5859.48950538 Ry
     Harris-Foulkes estimate   =   -5859.49359832 Ry
     estimated scf accuracy    <       0.01612611 Ry

     iteration #  9     ecut=    20.00 Ry     beta= 0.50
     Davidson diagonalization with overlap
     ethr =  1.12E-05,  avg # of iterations =  2.0

     negative rho (up, down):  6.526E-01 0.000E+00

     total cpu time spent up to now is       20.3 secs

     total energy              =   -5859.46032331 Ry
     Harris-Foulkes estimate   =   -5859.49002376 Ry
     estimated scf accuracy    <       0.01338788 Ry

     iteration # 10     ecut=    20.00 Ry     beta= 0.50
     Davidson diagonalization with overlap
     ethr =  9.30E-06,  avg # of iterations =  3.0

     negative rho (up, down):  6.519E-01 0.000E+00

     total cpu time spent up to now is       22.3 secs

     total energy              =   -5859.47383544 Ry
     Harris-Foulkes estimate   =   -5859.47542693 Ry
     estimated scf accuracy    <       0.00150891 Ry

     iteration # 11     ecut=    20.00 Ry     beta= 0.50
     Davidson diagonalization with overlap
     ethr =  1.05E-06,  avg # of iterations =  5.0

     negative rho (up, down):  6.517E-01 0.000E+00

     total cpu time spent up to now is       24.2 secs

     total energy              =   -5859.47501561 Ry
     Harris-Foulkes estimate   =   -5859.47450949 Ry
     estimated scf accuracy    <       0.00098604 Ry

     iteration # 12     ecut=    20.00 Ry     beta= 0.50
     Davidson diagonalization with overlap
     ethr =  6.85E-07,  avg # of iterations =  2.0

     negative rho (up, down):  6.527E-01 0.000E+00

     total cpu time spent up to now is       26.1 secs

     total energy              =   -5859.47264297 Ry
     Harris-Foulkes estimate   =   -5859.47511307 Ry
     estimated scf accuracy    <       0.00144399 Ry

     iteration # 13     ecut=    20.00 Ry     beta= 0.50
     Davidson diagonalization with overlap
     ethr =  6.85E-07,  avg # of iterations =  3.0

     negative rho (up, down):  6.519E-01 0.000E+00

     total cpu time spent up to now is       28.0 secs

     total energy              =   -5859.47292656 Ry
     Harris-Foulkes estimate   =   -5859.47368963 Ry
     estimated scf accuracy    <       0.00034441 Ry

     iteration # 14     ecut=    20.00 Ry     beta= 0.50
     Davidson diagonalization with overlap
     ethr =  2.39E-07,  avg # of iterations =  3.0

     negative rho (up, down):  6.517E-01 0.000E+00

     total cpu time spent up to now is       29.9 secs

     total energy              =   -5859.47310774 Ry
     Harris-Foulkes estimate   =   -5859.47303107 Ry
     estimated scf accuracy    <       0.00010713 Ry

     iteration # 15     ecut=    20.00 Ry     beta= 0.50
     Davidson diagonalization with overlap
     ethr =  7.44E-08,  avg # of iterations =  3.0

     negative rho (up, down):  6.513E-01 0.000E+00

     total cpu time spent up to now is       31.8 secs

     total energy              =   -5859.47267737 Ry
     Harris-Foulkes estimate   =   -5859.47308630 Ry
     estimated scf accuracy    <       0.00018891 Ry

     iteration # 16     ecut=    20.00 Ry     beta= 0.50
     Davidson diagonalization with overlap
     ethr =  7.44E-08,  avg # of iterations =  3.0

     negative rho (up, down):  6.509E-01 0.000E+00

     total cpu time spent up to now is       33.7 secs

     total energy              =   -5859.47273839 Ry
     Harris-Foulkes estimate   =   -5859.47281220 Ry
     estimated scf accuracy    <       0.00003952 Ry

     iteration # 17     ecut=    20.00 Ry     beta= 0.50
     Davidson diagonalization with overlap
     ethr =  2.74E-08,  avg # of iterations =  3.0

     negative rho (up, down):  6.507E-01 0.000E+00

     total cpu time spent up to now is       35.6 secs

     total energy              =   -5859.47277275 Ry
     Harris-Foulkes estimate   =   -5859.47276192 Ry
     estimated scf accuracy    <       0.00001235 Ry

     iteration # 18     ecut=    20.00 Ry     beta= 0.50
     Davidson diagonalization with overlap
     ethr =  8.58E-09,  avg # of iterations =  2.0

     negative rho (up, down):  6.508E-01 0.000E+00

     total cpu time spent up to now is       37.6 secs

     total energy              =   -5859.47274129 Ry
     Harris-Foulkes estimate   =   -5859.47277382 Ry
     estimated scf accuracy    <       0.00001858 Ry

     iteration # 19     ecut=    20.00 Ry     beta= 0.50
     Davidson diagonalization with overlap
     ethr =  8.58E-09,  avg # of iterations =  3.0

     negative rho (up, down):  6.504E-01 0.000E+00

     total cpu time spent up to now is       39.5 secs

     End of self-consistent calculation

          k = 0.0000 0.0000 0.0000 (  3912 PWs)   bands (ev):

   -11.3427 -11.1052 -11.0568 -10.5458 -10.4933 -10.3409 -10.1310  -9.9165
    -4.0822  -3.5113  -3.4842  -3.4574  -3.2969  -2.9321  -2.8407  -2.7051
    -2.6623  -2.6113  -2.5844  -2.5027  -2.4324  -2.3897  -2.3543  -2.3086
    -2.3011  -2.2527  -2.2160  -2.1959  -2.1868  -2.1743  -2.1404  -2.1060
    -2.0961  -2.0829  -2.0755  -2.0628  -2.0473  -2.0171  -1.9775  -1.9628
    -1.9500  -1.9328  -1.9192  -1.8977  -1.8839  -1.8787  -1.8497  -1.8181
    -1.5581  -1.4715  -1.3544  -1.2650  -1.2354  -0.8669  -0.7927  -0.3292
    -0.3055  -0.2093  -0.1221  -0.1023   0.0436   0.0969   0.2511   0.3619
     0.3760   0.4987   0.5379   0.6554   0.6744   0.7077   0.9145   0.9517
     1.4065   2.5118   2.6882   3.0467   3.4374   3.5630   3.9266   4.2882
     4.4330   4.6996   5.0267   5.3369   5.6913   5.9528

     the Fermi energy is     1.2128 ev

!    total energy              =   -5859.47274235 Ry
     Harris-Foulkes estimate   =   -5859.47272549 Ry
     estimated scf accuracy    <       0.00000612 Ry

     total all-electron energy =   -198907.180722 Ry

     The total energy is the sum of the following terms:

     one-electron contribution =    -350.62261165 Ry
     hartree contribution      =     284.37491836 Ry
     xc contribution           =    -302.07883282 Ry
     ewald contribution        =    -506.75188712 Ry
     one-center paw contrib.   =   -4984.37885458 Ry
     smearing contrib. (-TS)   =      -0.01547454 Ry

     convergence has been achieved in  19 iterations

     negative rho (up, down):  6.504E-01 0.000E+00

     Forces acting on atoms (cartesian axes, Ry/au):

     atom    1 type  1   force =    -0.01908980    0.00227507    0.00102734
     atom    2 type  2   force =     0.00267610   -0.01258277   -0.01783862
     atom    3 type  1   force =     0.04216946    0.30447923   -0.12229845
     atom    4 type  2   force =    -0.02045788   -0.02096369    0.01885127
     atom    5 type  1   force =    -0.00436488    0.00067892    0.01447839
     atom    6 type  2   force =    -0.11010188    0.10167056    0.07998430
     atom    7 type  1   force =     0.03763558    0.01189117   -0.01154492
     atom    8 type  2   force =    -0.03598933   -0.31755079    0.12177308
     atom    9 type  1   force =    -0.02481000   -0.00458560   -0.03208586
     atom   10 type  2   force =    -0.00576554   -0.01547662    0.00215847
     atom   11 type  1   force =     0.01148073    0.01416675   -0.00971490
     atom   12 type  2   force =     0.01046493    0.02212914    0.03484459
     atom   13 type  1   force =     0.09885455   -0.08415962   -0.07300419
     atom   14 type  2   force =     0.00558317    0.01812073    0.00503996
     atom   15 type  1   force =     0.01449581   -0.01506209    0.00269102
     atom   16 type  2   force =    -0.00278103   -0.00503038   -0.01436151

     Total force =     0.535431     Total SCF correction =     0.001712


     Computing stress (Cartesian axis) and pressure


     negative rho (up, down):  6.504E-01 0.000E+00
          total   stress  (Ry/bohr**3)                   (kbar)     P=-1259.75
  -0.00858587  -0.00004277  -0.00005716      -1263.03     -6.29     -8.41
  -0.00004277  -0.00843232  -0.00005724         -6.29  -1240.44     -8.42
  -0.00005716  -0.00005724  -0.00867255         -8.41     -8.42  -1275.78


     Writing output data file AgI.save/
 
     init_run     :      2.07s CPU      2.14s WALL (       1 calls)
     electrons    :     36.12s CPU     36.30s WALL (       1 calls)
     forces       :      0.10s CPU      0.10s WALL (       1 calls)
     stress       :      0.53s CPU      0.53s WALL (       1 calls)

     Called by init_run:
     wfcinit      :      0.10s CPU      0.10s WALL (       1 calls)
     potinit      :      1.56s CPU      1.61s WALL (       1 calls)
     hinit0       :      0.38s CPU      0.38s WALL (       1 calls)

     Called by electrons:
     c_bands      :      4.93s CPU      4.99s WALL (      19 calls)
     sum_band     :      1.34s CPU      1.35s WALL (      19 calls)
     v_of_rho     :      0.29s CPU      0.29s WALL (      20 calls)
     newd         :      0.52s CPU      0.54s WALL (      20 calls)
     PAW_pot      :     30.57s CPU     30.69s WALL (      20 calls)
     mix_rho      :      0.04s CPU      0.04s WALL (      19 calls)

     Called by c_bands:
     init_us_2    :      0.11s CPU      0.12s WALL (      39 calls)
     regterg      :      3.94s CPU      3.99s WALL (      19 calls)

     Called by sum_band:
     sum_band:bec :      0.00s CPU      0.00s WALL (      19 calls)
     addusdens    :      0.75s CPU      0.75s WALL (      19 calls)

     Called by *egterg:
     h_psi        :      2.48s CPU      2.49s WALL (      75 calls)
     s_psi        :      0.29s CPU      0.29s WALL (      75 calls)
     g_psi        :      0.02s CPU      0.02s WALL (      55 calls)
     rdiaghg      :      0.42s CPU      0.43s WALL (      74 calls)

     Called by h_psi:
     h_psi:pot    :      2.45s CPU      2.46s WALL (      75 calls)
     h_psi:calbec :      0.31s CPU      0.31s WALL (      75 calls)
     vloc_psi     :      1.83s CPU      1.84s WALL (      75 calls)
     add_vuspsi   :      0.31s CPU      0.31s WALL (      75 calls)

     General routines
     calbec       :      0.45s CPU      0.45s WALL (      99 calls)
     fft          :      0.09s CPU      0.09s WALL (     200 calls)
     ffts         :      0.01s CPU      0.01s WALL (      19 calls)
     fftw         :      1.97s CPU      1.98s WALL (    4617 calls)
 
     Parallel routines
 
     PWSCF        :     39.84s CPU     40.21s WALL

 
   This run was terminated on:  21:53:18  22Sep2019            

=------------------------------------------------------------------------------=
   JOB DONE.
=------------------------------------------------------------------------------=
