 vasp.5.4.4.18Apr17-6-g9f103f2a35 (build Mar 11 2020 12:08:48) complex          
  
 executed on             LinuxIFC date 2021.10.19  19:14:55
 running on  128 total cores
 distrk:  each k-point on   32 cores,    4 groups
 distr:  one band on NCORES_PER_BAND=  32 cores,    1 groups


--------------------------------------------------------------------------------------------------------


 INCAR:
 POTCAR:    PAW Ni 02Aug2007                      
 POTCAR:    PAW Ti 03Oct2001                      

 ----------------------------------------------------------------------------- 
|                                                                             |
|           W    W    AA    RRRRR   N    N  II  N    N   GGGG   !!!           |
|           W    W   A  A   R    R  NN   N  II  NN   N  G    G  !!!           |
|           W    W  A    A  R    R  N N  N  II  N N  N  G       !!!           |
|           W WW W  AAAAAA  RRRRR   N  N N  II  N  N N  G  GGG   !            |
|           WW  WW  A    A  R   R   N   NN  II  N   NN  G    G                |
|           W    W  A    A  R    R  N    N  II  N    N   GGGG   !!!           |
|                                                                             |
|      For optimal performance we recommend to set                            |
|        NCORE= 4 - approx SQRT( number of cores)                             |
|      NCORE specifies how many cores store one orbital (NPAR=cpu/NCORE).     |
|      This setting can  greatly improve the performance of VASP for DFT.     |
|      The default,   NCORE=1            might be grossly inefficient         |
|      on modern multi-core architectures or massively parallel machines.     |
|      Do your own testing !!!!                                               |
|      Unfortunately you need to use the default for GW and RPA calculations. |
|      (for HF NCORE is supported but not extensively tested yet)             |
|                                                                             |
 ----------------------------------------------------------------------------- 


 ----------------------------------------------------------------------------- 
|                                                                             |
|           W    W    AA    RRRRR   N    N  II  N    N   GGGG   !!!           |
|           W    W   A  A   R    R  NN   N  II  NN   N  G    G  !!!           |
|           W    W  A    A  R    R  N N  N  II  N N  N  G       !!!           |
|           W WW W  AAAAAA  RRRRR   N  N N  II  N  N N  G  GGG   !            |
|           WW  WW  A    A  R   R   N   NN  II  N   NN  G    G                |
|           W    W  A    A  R    R  N    N  II  N    N   GGGG   !!!           |
|                                                                             |
|      You have enabled k-point parallelism (KPAR>1).                         |
|      This developmental code was originally  written by Paul Kent at ORNL,  |
|      and carefully double checked in Vienna.                                |
|      GW as well as linear response parallelism added by Martijn Marsman     |
|      and Georg Kresse.                                                      |
|      Carefully verify results versus KPAR=1.                                |
|      Report problems to Paul Kent and Vienna.                               |
|                                                                             |
 ----------------------------------------------------------------------------- 

 POTCAR:    PAW Ni 02Aug2007                      
   VRHFIN =Ni:                                                                  
   LEXCH  = CA                                                                  
   EATOM  =  1081.7953 eV,   79.5097 Ry                                         
                                                                                
   TITEL  = PAW Ni 02Aug2007                                                    
   LULTRA =        F    use ultrasoft PP ?                                      
   IUNSCR =        1    unscreen: 0-lin 1-nonlin 2-no                           
   RPACOR =    2.000    partial core radius                                     
   POMASS =   58.690; ZVAL   =   10.000    mass and valenz                      
   RCORE  =    2.300    outmost cutoff radius                                   
   RWIGS  =    2.430; RWIGS  =    1.286    wigner-seitz radius (au A)           
   ENMAX  =  269.618; ENMIN  =  202.214 eV                                      
   RCLOC  =    1.201    cutoff for local pot                                    
   LCOR   =        T    correct aug charges                                     
   LPAW   =        T    paw PP                                                  
   EAUG   =  544.565                                                            
   DEXC   =    0.000                                                            
   RMAX   =    2.357    core radius for proj-oper                               
   RAUG   =    1.300    factor for augmentation sphere                          
   RDEP   =    2.390    radius for radial grids                                 
   RDEPT  =    1.838    core radius for aug-charge                              
                                                                                
   Atomic configuration                                                         
    9 entries                                                                   
     n  l   j            E        occ.                                          
     1  0  0.50     -8166.2395   2.0000                                         
     2  0  0.50      -972.1372   2.0000                                         
     2  1  1.50      -837.5382   6.0000                                         
     3  0  0.50      -105.2012   2.0000                                         
     3  1  1.50       -66.2602   6.0000                                         
     3  2  2.50        -4.9314   9.0000                                         
     4  0  0.50        -4.7253   1.0000                                         
     4  1  1.50        -4.0817   0.0000                                         
     4  3  2.50        -1.3606   0.0000                                         
   Description                                                                  
     l       E           TYP  RCUT    TYP  RCUT                                 
     2     -4.9313510     23  2.300                                             
     2     -6.2919336     23  2.300                                             
     0     -4.7252708     23  2.300                                             
     0      4.6925118     23  2.300                                             
     1     -2.7211652     23  2.300                                             
     1     16.1356593     23  2.300                                             
  local pseudopotential read in
  partial core-charges read in
  partial kinetic energy density read in
  atomic valenz-charges read in
  non local Contribution for L=           2  read in
    real space projection operators read in
  non local Contribution for L=           2  read in
    real space projection operators read in
  non local Contribution for L=           0  read in
    real space projection operators read in
  non local Contribution for L=           0  read in
    real space projection operators read in
  non local Contribution for L=           1  read in
    real space projection operators read in
  non local Contribution for L=           1  read in
    real space projection operators read in
    PAW grid and wavefunctions read in
 
   number of l-projection  operators is LMAX  =           6
   number of lm-projection operators is LMMAX =          18
 
 POTCAR:    PAW Ti 03Oct2001                      
   VRHFIN =Ti: d3 s1                                                            
   LEXCH  = CA                                                                  
   EATOM  =    95.9491 eV,    7.0521 Ry                                         
                                                                                
   TITEL  = PAW Ti 03Oct2001                                                    
   LULTRA =        F    use ultrasoft PP ?                                      
   IUNSCR =        1    unscreen: 0-lin 1-nonlin 2-no                           
   RPACOR =    2.200    partial core radius                                     
   POMASS =   47.880; ZVAL   =    4.000    mass and valenz                      
   RCORE  =    2.800    outmost cutoff radius                                   
   RWIGS  =    2.500; RWIGS  =    1.323    wigner-seitz radius (au A)           
   ENMAX  =  178.520; ENMIN  =  133.890 eV                                      
   RCLOC  =    2.215    cutoff for local pot                                    
   LCOR   =        T    correct aug charges                                     
   LPAW   =        T    paw PP                                                  
   EAUG   =  328.883                                                            
   DEXC   =    0.000                                                            
   RMAX   =    2.868    core radius for proj-oper                               
   RAUG   =    1.300    factor for augmentation sphere                          
   RDEP   =    2.885    radius for radial grids                                 
   RDEPT  =    2.320    core radius for aug-charge                              
                                                                                
   Atomic configuration                                                         
    9 entries                                                                   
     n  l   j            E        occ.                                          
     1  0  0.50     -4841.5915   2.0000                                         
     2  0  0.50      -530.7755   2.0000                                         
     2  1  1.50      -439.8260   6.0000                                         
     3  0  0.50       -58.8300   2.0000                                         
     3  1  1.50       -35.5746   6.0000                                         
     3  2  2.50        -2.0952   3.0000                                         
     4  0  0.50        -3.8733   1.0000                                         
     4  1  1.50        -4.0817   0.0000                                         
     4  3  2.50        -1.3606   0.0000                                         
   Description                                                                  
     l       E           TYP  RCUT    TYP  RCUT                                 
     2     -2.0951798     23  2.800                                             
     2     -0.5857835     23  2.800                                             
     0     -3.8733002     23  2.800                                             
     0     20.4087390     23  2.800                                             
     1     -5.4423304     23  2.800                                             
  local pseudopotential read in
  partial core-charges read in
  partial kinetic energy density read in
  atomic valenz-charges read in
  non local Contribution for L=           2  read in
    real space projection operators read in
  non local Contribution for L=           2  read in
    real space projection operators read in
  non local Contribution for L=           0  read in
    real space projection operators read in
  non local Contribution for L=           0  read in
    real space projection operators read in
  non local Contribution for L=           1  read in
    real space projection operators read in
    PAW grid and wavefunctions read in
 
   number of l-projection  operators is LMAX  =           5
   number of lm-projection operators is LMMAX =          15
 

 ----------------------------------------------------------------------------- 
|                                                                             |
|  ADVICE TO THIS USER RUNNING 'VASP/VAMP'   (HEAR YOUR MASTER'S VOICE ...):  |
|                                                                             |
|      You have a (more or less) 'large supercell' and for larger cells       |
|      it might be more efficient to use real space projection opertators     |
|      So try LREAL= Auto  in the INCAR   file.                               |
|      Mind:          For very  accurate calculation you might also keep the  |
|      reciprocal projection scheme          (i.e. LREAL=.FALSE.)             |
|                                                                             |
 ----------------------------------------------------------------------------- 

  PAW Ni 02Aug2007                      :
 energy of atom  1       EATOM=-1081.7953
 kinetic energy error for atom=    0.0269 (will be added to EATOM!!)
  PAW Ti 03Oct2001                      :
 energy of atom  2       EATOM=  -95.9491
 kinetic energy error for atom=    0.0008 (will be added to EATOM!!)
 
 
 POSCAR: Ni Ti                                   
  positions in cartesian coordinates
  No initial velocities read in
 exchange correlation table for  LEXCH =        2
   RHO(1)=    0.500       N(1)  =     2000
   RHO(2)=  100.500       N(2)  =     4000
 


--------------------------------------------------------------------------------------------------------


 ion  position               nearest neighbor table
   1  0.224  0.013  0.075- 108 2.44  30 2.48  73 2.53 102 2.54  97 2.56  26 2.58 104 2.58  91 2.65
                            98 2.69  19 2.84   7 2.92
   2  0.772  0.984  0.243- 121 2.47 139 2.49  74 2.54  49 2.58 122 2.60 123 2.62 141 2.68  80 2.71
                            20 2.74  51 2.77   8 3.07
   3  0.221  0.015  0.409-  75 2.47  98 2.49  93 2.54  26 2.55 104 2.56  28 2.61  99 2.68 100 2.69
                           106 2.71   9 2.75  21 3.07
   4  0.777  0.990  0.584-  53 2.50 123 2.52  82 2.53 141 2.56 143 2.56 125 2.57  76 2.59  51 2.61
                           124 2.65  22 2.81  10 2.86
   5  0.231  0.017  0.743- 106 2.50 100 2.53 101 2.54  28 2.55 108 2.56  95 2.62  77 2.62  30 2.65
                           102 2.65  11 2.81  23 3.08
   6  0.768  0.984  0.923- 121 2.42 139 2.47 126 2.50  78 2.56 143 2.61  49 2.63 125 2.67  53 2.75
                            24 2.77  84 2.77  12 2.88
   7  0.228  0.266  0.076- 114 2.36  36 2.49 103 2.50 108 2.51  79 2.59 104 2.61 110 2.72  73 2.73
                            32 2.81  13 2.90   1 2.92
   8  0.779  0.250  0.254- 129 2.41  80 2.49  86 2.55  57 2.58 127 2.62 128 2.66  55 2.68 123 2.68
                           121 2.78  14 2.89   2 3.07
   9  0.222  0.252  0.409-  81 2.49  32 2.52 104 2.53 110 2.55 106 2.56  34 2.57  75 2.61 105 2.73
                             3 2.75 112 2.77  15 3.05
  10  0.778  0.236  0.580-  82 2.40  57 2.48 123 2.56 125 2.57 130 2.58  88 2.60 129 2.62 131 2.63
                            59 2.71   4 2.86  16 2.99
  11  0.219  0.257  0.753-  83 2.45 106 2.50 108 2.53  34 2.59  77 2.59  36 2.60 112 2.60 114 2.63
                           107 2.70   5 2.81  17 2.94
  12  0.774  0.233  0.917-  84 2.47 131 2.51 125 2.54 132 2.56  55 2.57 127 2.57 121 2.57  59 2.62
                            90 2.63   6 2.88  18 2.95
  13  0.220  0.514  0.082-  85 2.42 120 2.53 114 2.57  42 2.57  79 2.57 109 2.60  38 2.62 110 2.67
                           116 2.67   7 2.90  19 2.94
  14  0.770  0.497  0.248- 133 2.43 135 2.45 129 2.55  61 2.55  63 2.56  86 2.63 127 2.64 134 2.65
                            92 2.70   8 2.89  20 2.90 140 3.07
  15  0.222  0.516  0.415- 110 2.52  40 2.56  87 2.56 116 2.57 111 2.63 112 2.65 118 2.65  81 2.66
                            38 2.66  21 2.73   9 3.05
  16  0.782  0.495  0.585-  94 2.48  88 2.50 135 2.52 137 2.53  65 2.55  63 2.61 136 2.66 129 2.67
                           131 2.68  22 2.94  10 2.99
  17  0.231  0.512  0.742- 112 2.40 113 2.44  89 2.52 118 2.53  40 2.61  83 2.65 120 2.72 114 2.75
                            23 2.79  42 2.80  11 2.94
  18  0.777  0.488  0.917-  96 2.49 127 2.52  65 2.53 133 2.54 131 2.55  90 2.57  61 2.63 137 2.63
                           138 2.70  12 2.95  24 3.00
  19  0.228  0.768  0.078- 102 2.45  48 2.48 120 2.49 115 2.51  98 2.59  91 2.61  85 2.62 116 2.65
                            44 2.67   1 2.84  13 2.94
  20  0.770  0.747  0.253- 141 2.47 140 2.50  69 2.52 139 2.55  74 2.60 135 2.63 133 2.64  67 2.67
                            92 2.69   2 2.74  14 2.90
  21  0.218  0.750  0.409- 116 2.38  44 2.42  87 2.48  98 2.52  93 2.54 118 2.56  46 2.62 100 2.68
                           117 2.70  15 2.73   3 3.07
  22  0.771  0.746  0.584- 141 2.40 143 2.50  71 2.52  94 2.57 137 2.57 142 2.57  76 2.65  69 2.66
                           135 2.68   4 2.81  16 2.94
  23  0.226  0.751  0.755- 118 2.44 120 2.49  89 2.50 102 2.53  95 2.56  48 2.61 100 2.64 119 2.64
                            46 2.69  17 2.79   5 3.08
  24  0.771  0.745  0.915- 144 2.53 143 2.53 139 2.54  96 2.60 137 2.61 133 2.63  78 2.63  67 2.65
                            71 2.66   6 2.77  18 3.00
  25  0.552  0.001  0.079- 122 2.43 115 2.50 126 2.56  54 2.56  50 2.57 132 2.58  97 2.62 121 2.66
                           128 2.67  43 2.73  31 2.92
  26  0.111  0.992  0.242-  73 2.47  98 2.48  91 2.49   3 2.55   1 2.58  93 2.59 104 2.60  75 2.64
                            74 2.65  32 2.85  44 2.90
  27  0.554  0.010  0.424- 124 2.49  52 2.49  99 2.49 130 2.58 117 2.59 122 2.61 123 2.61  50 2.62
                           128 2.79  33 2.94  45 2.95
  28  0.113  0.987  0.583- 100 2.41  75 2.51  95 2.55   5 2.55  76 2.58  93 2.60   3 2.61 106 2.63
                            77 2.66  34 2.85  46 2.87
  29  0.560  0.011  0.747- 124 2.38 126 2.53 125 2.55 101 2.56 130 2.57  52 2.59  54 2.61 119 2.62
                           132 2.72  35 2.88  47 2.93
  30  0.115  0.993  0.915- 108 2.40  77 2.46 102 2.47   1 2.48  73 2.54  95 2.56   5 2.65  91 2.68
                            78 2.69  48 2.84  36 2.97
  31  0.560  0.255  0.087- 128 2.34 132 2.42 134 2.49 127 2.55  56 2.60  97 2.60 138 2.61 103 2.65
                            60 2.68  25 2.92  37 3.05
  32  0.102  0.236  0.255-  81 2.45  80 2.50   9 2.52  75 2.60  73 2.65 104 2.68  79 2.69 110 2.77
                             7 2.81  26 2.85  38 2.88
  33  0.562  0.265  0.423- 130 2.48 136 2.51 105 2.57  99 2.61 129 2.63  58 2.64 128 2.66  56 2.67
                           134 2.68  39 2.93  27 2.94
  34  0.115  0.233  0.579- 106 2.37  81 2.50  75 2.52   9 2.57  11 2.59 112 2.59  77 2.71  83 2.71
                            82 2.73  28 2.85  40 3.06
  35  0.557  0.259  0.752- 130 2.51  60 2.52 101 2.54  58 2.54 132 2.56 107 2.58 138 2.64 131 2.64
                           136 2.73  29 2.88  41 2.98
  36  0.109  0.248  0.923-  79 2.39  83 2.47   7 2.49 108 2.55 114 2.55  11 2.60  73 2.60  84 2.60
                            77 2.67  42 2.87  30 2.97
  37  0.551  0.516  0.089- 140 2.47 134 2.47 109 2.50  62 2.52 138 2.56 103 2.60  66 2.62 144 2.64
                           133 2.77  43 2.90  31 3.05
  38  0.101  0.484  0.247-  86 2.46  85 2.48  79 2.56  13 2.62  87 2.63  81 2.63 110 2.65  15 2.66
                           116 2.80  32 2.88  44 2.98
  39  0.563  0.517  0.416- 136 2.47 135 2.54 140 2.56 111 2.56 142 2.60  62 2.62 105 2.63 134 2.64
                            64 2.71  45 2.78  33 2.93
  40  0.109  0.496  0.580-  87 2.54  15 2.56  89 2.57 112 2.58 118 2.60  17 2.61  88 2.62  81 2.65
                            83 2.73  46 2.81  34 3.06
  41  0.556  0.516  0.751- 113 2.52 144 2.55 107 2.57 137 2.58  64 2.59 142 2.59  66 2.59 136 2.59
                           138 2.59  47 2.81  35 2.98
  42  0.104  0.495  0.918-  89 2.41  79 2.52  85 2.55  83 2.56  13 2.57  90 2.57 120 2.68 114 2.74
                            17 2.80  36 2.87  48 2.92
  43  0.557  0.767  0.085- 115 2.50 122 2.52 139 2.52 140 2.59 126 2.61  68 2.62 144 2.63 109 2.65
                            25 2.73  72 2.73  37 2.90
  44  0.113  0.743  0.252-  21 2.42  98 2.45  93 2.49 116 2.51  85 2.54  87 2.56  91 2.56  92 2.58
                            19 2.67  26 2.90  38 2.98
  45  0.564  0.757  0.419- 142 2.45 141 2.59 117 2.61 140 2.61 111 2.63  68 2.63  70 2.65 124 2.69
                           122 2.73  39 2.78  27 2.95
  46  0.108  0.739  0.582- 118 2.46 100 2.49  87 2.54  95 2.58  93 2.62  21 2.62  94 2.63  89 2.67
                            23 2.69  40 2.81  28 2.87
  47  0.554  0.757  0.747- 119 2.43 142 2.45  70 2.50 126 2.56 144 2.57 124 2.57  72 2.59 143 2.59
                           113 2.62  41 2.81  29 2.93
  48  0.113  0.748  0.923- 102 2.42  19 2.48  91 2.52  95 2.57 120 2.58  23 2.61  85 2.62  89 2.66
                            96 2.79  30 2.84  42 2.92
  49  0.893  0.013  0.084- 121 2.50  73 2.51  78 2.56  80 2.58   2 2.58  74 2.59   6 2.63  84 2.68
                           139 2.69  55 2.85  67 2.89
  50  0.446  0.993  0.249- 122 2.37  99 2.51  25 2.57 115 2.57 128 2.58  97 2.59  27 2.62 117 2.67
                            98 2.73  68 2.82  56 2.89
  51  0.896  0.017  0.420-  75 2.44 123 2.54  82 2.55  74 2.57  76 2.60   4 2.61  80 2.65 141 2.66
                             2 2.77  57 2.90  69 2.99
  52  0.443  0.985  0.583- 124 2.41  27 2.49 119 2.55 117 2.56  29 2.59 101 2.63  99 2.65 130 2.67
                           100 2.72  70 2.77  58 3.04
  53  0.888  0.002  0.745-  76 2.46  78 2.50   4 2.50 143 2.56  82 2.57  77 2.60 125 2.62  84 2.70
                             6 2.75  59 2.89  71 2.90
  54  0.442  0.995  0.912- 101 2.45  25 2.56 132 2.60 126 2.60  29 2.61  97 2.63 119 2.64 102 2.69
                           115 2.71  60 2.80  72 2.95
  55  0.892  0.259  0.078-  90 2.43  84 2.49  80 2.50  12 2.57  79 2.58 127 2.62  86 2.67 121 2.67
                             8 2.68  61 2.84  49 2.85
  56  0.443  0.242  0.253-  99 2.49 128 2.49 134 2.50 104 2.57 103 2.58  97 2.59  31 2.60 105 2.62
                            33 2.67  50 2.89  62 2.98
  57  0.889  0.265  0.422- 129 2.45  88 2.46  10 2.48  82 2.53   8 2.58  81 2.59  80 2.62 123 2.67
                            86 2.68  63 2.88  51 2.90
  58  0.442  0.247  0.591- 107 2.42 105 2.53  35 2.54 130 2.57 101 2.57 106 2.60 136 2.62  33 2.64
                            99 2.73  64 2.90  52 3.04
  59  0.896  0.252  0.754-  84 2.32  82 2.46 131 2.59 125 2.60  83 2.61  90 2.62  12 2.62  10 2.71
                            88 2.72  53 2.89  65 2.95  77 3.13
  60  0.445  0.237  0.913- 132 2.43 101 2.48  35 2.52 138 2.52  97 2.60 107 2.63 103 2.64  31 2.68
                           108 2.73  54 2.80  66 2.86
  61  0.889  0.503  0.090-  86 2.39 133 2.46  14 2.55  90 2.55 127 2.56  92 2.58  18 2.63  96 2.71
                            85 2.73  55 2.84  67 3.02
  62  0.442  0.499  0.252- 111 2.39  37 2.52 134 2.54 110 2.55 109 2.58 140 2.58  39 2.62 105 2.65
                           103 2.67  68 2.90  56 2.98
  63  0.887  0.513  0.409- 135 2.38 129 2.47  86 2.50  14 2.56  87 2.61  16 2.61  92 2.61  88 2.62
                            94 2.74  69 2.83  57 2.88
  64  0.440  0.497  0.586- 113 2.49 107 2.50 105 2.54 136 2.55  41 2.59 112 2.59 142 2.60 111 2.61
                            39 2.71  70 2.89  58 2.90
  65  0.888  0.505  0.754-  96 2.47 131 2.52  18 2.53  16 2.55 137 2.60  90 2.60  94 2.60  88 2.61
                            89 2.73  71 2.87  59 2.95
  66  0.441  0.483  0.917- 138 2.40 114 2.52 103 2.55 107 2.56 113 2.56  41 2.59 109 2.60  37 2.62
                           144 2.69  60 2.86  72 2.98
  67  0.890  0.763  0.084-  92 2.49 133 2.52  91 2.55 139 2.58  74 2.60  78 2.63  24 2.65  96 2.66
                            20 2.67  49 2.89  61 3.02
  68  0.442  0.749  0.255- 117 2.44 115 2.51 111 2.52 122 2.53 116 2.56  43 2.62  45 2.63 140 2.68
                           109 2.71  50 2.82  62 2.90
  69  0.886  0.757  0.410- 141 2.41  20 2.52 135 2.53  74 2.53  92 2.53  94 2.66  22 2.66  76 2.72
                            93 2.72  63 2.83  51 2.99
  70  0.444  0.746  0.587- 119 2.40 142 2.49 117 2.50  47 2.50 124 2.56 118 2.63  45 2.65 113 2.67
                           111 2.74  52 2.77  64 2.89
  71  0.887  0.751  0.742-  94 2.32 137 2.50  22 2.52  96 2.55  76 2.56 143 2.63  24 2.66  78 2.73
                            95 2.79  65 2.87  53 2.90
  72  0.435  0.739  0.910- 120 2.45 119 2.46 113 2.52  47 2.59 109 2.59 115 2.64 144 2.65 126 2.66
                            43 2.73  54 2.95  66 2.98
  73  0.068  0.101  0.082-  26 2.47  49 2.51   1 2.53  30 2.54  36 2.60  32 2.65   7 2.73  91 2.82
                            80 2.94  84 2.97  79 2.99
  74  0.928  0.894  0.253-  69 2.53   2 2.54  51 2.57  49 2.59  67 2.60  20 2.60  26 2.65  92 2.84
                            93 2.86  91 2.87  80 3.00
  75  0.067  0.098  0.422-  51 2.44   3 2.47  28 2.51  34 2.52  32 2.60   9 2.61  26 2.64  93 2.77
                            81 2.87  82 2.96  80 3.03
  76  0.935  0.893  0.586-  53 2.46  71 2.56  28 2.58   4 2.59  51 2.60  22 2.65  69 2.72  94 2.85
                            95 2.90  82 2.96  93 2.96
  77  0.066  0.102  0.757-  30 2.46  11 2.59  53 2.60   5 2.62  28 2.66  36 2.67  34 2.71  84 2.81
                            95 2.84  83 2.92  82 3.00  59 3.13
  78  0.928  0.899  0.914-  53 2.50   6 2.56  49 2.56  67 2.63  24 2.63  30 2.69  71 2.73  84 2.94
                            91 2.96  95 2.97  96 3.03
  79  0.069  0.359  0.077-  36 2.39  42 2.52  38 2.56  13 2.57  55 2.58   7 2.59  32 2.69  90 2.76
                            85 2.89  86 2.95  73 2.99
  80  0.927  0.153  0.247-   8 2.49  32 2.50  55 2.50  49 2.58  57 2.62  51 2.65   2 2.71  86 2.87
                            73 2.94  74 3.00  75 3.03
  81  0.072  0.347  0.418-  32 2.45   9 2.49  34 2.50  57 2.59  38 2.63  40 2.65  15 2.66  75 2.87
                            88 2.92  86 3.01  87 3.08
  82  0.923  0.146  0.587-  10 2.40  59 2.46  57 2.53   4 2.53  51 2.55  53 2.57  34 2.73  88 2.86
                            76 2.96  75 2.96  77 3.00
  83  0.075  0.355  0.757-  11 2.45  36 2.47  42 2.56  59 2.61  17 2.65  34 2.71  40 2.73  89 2.87
                            77 2.92  90 2.94  88 3.06
  84  0.929  0.153  0.911-  59 2.32  12 2.47  55 2.49  36 2.60  49 2.68  53 2.70  90 2.73   6 2.77
                            77 2.81  78 2.94  73 2.97
  85  0.076  0.609  0.090-  13 2.42  38 2.48  44 2.54  42 2.55  48 2.62  19 2.62  61 2.73  92 2.83
                            79 2.89  91 2.91  96 3.12
  86  0.930  0.400  0.248-  61 2.39  38 2.46  63 2.50   8 2.55  14 2.63  55 2.67  57 2.68  80 2.87
                            92 2.89  79 2.95  81 3.01
  87  0.067  0.611  0.416-  21 2.48  40 2.54  46 2.54  44 2.56  15 2.56  63 2.61  38 2.63  93 2.88
                            92 2.89  94 2.99  81 3.08
  88  0.929  0.394  0.579-  57 2.46  16 2.50  10 2.60  65 2.61  63 2.62  40 2.62  59 2.72  82 2.86
                            81 2.92  94 2.94  83 3.06
  89  0.078  0.603  0.757-  42 2.41  23 2.50  17 2.52  40 2.57  48 2.66  46 2.67  65 2.73  83 2.87
                            96 2.94  95 2.98  94 3.04
  90  0.930  0.388  0.924-  55 2.43  61 2.55  18 2.57  42 2.57  65 2.60  59 2.62  12 2.63  84 2.73
                            79 2.76  96 2.91  83 2.94
  91  0.066  0.858  0.087-  26 2.49  48 2.52  67 2.55  44 2.56  19 2.61   1 2.65  30 2.68  73 2.82
                            74 2.87  85 2.91  78 2.96
  92  0.934  0.650  0.244-  67 2.49  69 2.53  61 2.58  44 2.58  63 2.61  20 2.69  14 2.70  85 2.83
                            74 2.84  87 2.89  86 2.89
  93  0.073  0.860  0.411-  44 2.49  21 2.54   3 2.54  26 2.59  28 2.60  46 2.62  69 2.72  75 2.77
                            74 2.86  87 2.88  76 2.96
  94  0.925  0.647  0.591-  71 2.32  16 2.48  22 2.57  65 2.60  46 2.63  69 2.66  63 2.74  76 2.85
                            88 2.94  87 2.99  89 3.04
  95  0.077  0.860  0.751-  28 2.55  30 2.56  23 2.56  48 2.57  46 2.58   5 2.62  71 2.79  77 2.84
                            76 2.90  78 2.97  89 2.98
  96  0.923  0.637  0.911-  65 2.47  18 2.49  71 2.55  24 2.60  67 2.66  61 2.71  48 2.79  90 2.91
                            89 2.94  78 3.03  85 3.12
  97  0.399  0.111  0.084-   1 2.56  50 2.59  56 2.59  60 2.60  31 2.60  25 2.62  54 2.63 104 2.74
                           103 2.83 108 2.92 115 2.97
  98  0.257  0.891  0.254-  44 2.45  26 2.48   3 2.49  21 2.52  19 2.59   1 2.69  50 2.73 116 2.80
                           104 2.91 115 2.95 117 2.97
  99  0.407  0.110  0.411-  56 2.49  27 2.49  50 2.51  33 2.61  52 2.65   3 2.68  58 2.73 104 2.90
                           105 2.93 117 3.00 106 3.04
 100  0.254  0.887  0.583-  28 2.41  46 2.49   5 2.53  23 2.64  21 2.68   3 2.69  52 2.72 118 2.72
                           117 2.98 119 3.01 106 3.07
 101  0.406  0.109  0.753-  54 2.45  60 2.48   5 2.54  35 2.54  29 2.56  58 2.57  52 2.63 107 2.94
                           108 2.97 106 2.97 119 2.99
 102  0.258  0.888  0.915-  48 2.42  19 2.45  30 2.47  23 2.53   1 2.54   5 2.65  54 2.69 120 2.81
                           108 2.91 115 2.99 119 3.02
 103  0.401  0.356  0.084-   7 2.50  66 2.55  56 2.58  37 2.60  60 2.64  31 2.65  62 2.67 114 2.77
                            97 2.83 110 2.91 109 2.93
 104  0.267  0.143  0.243-   9 2.53   3 2.56  56 2.57   1 2.58  26 2.60   7 2.61  32 2.68  97 2.74
                            99 2.90  98 2.91 110 2.97
 105  0.407  0.362  0.424-  58 2.53  64 2.54  33 2.57  56 2.62  39 2.63  62 2.65   9 2.73 111 2.83
                           110 2.91 112 2.92  99 2.93
 106  0.262  0.153  0.586-  34 2.37   5 2.50  11 2.50   9 2.56  58 2.60  28 2.63   3 2.71 112 2.80
                           101 2.97  99 3.04 100 3.07
 107  0.404  0.362  0.745-  58 2.42  64 2.50  66 2.56  41 2.57  35 2.58  60 2.63  11 2.70 113 2.79
                           112 2.82 101 2.94 114 2.96
 108  0.256  0.138  0.917-  30 2.40   1 2.44   7 2.51  11 2.53  36 2.55   5 2.56  60 2.73 114 2.88
                           102 2.91  97 2.92 101 2.97
 109  0.400  0.609  0.081-  37 2.50  62 2.58  72 2.59  66 2.60  13 2.60  43 2.65  68 2.71 120 2.78
                           115 2.85 116 2.91 103 2.93
 110  0.268  0.398  0.256-  15 2.52   9 2.55  62 2.55  38 2.65  13 2.67   7 2.72  32 2.77 105 2.91
                           103 2.91 116 2.93 104 2.97
 111  0.405  0.606  0.409-  62 2.39  68 2.52  39 2.56  64 2.61  45 2.63  15 2.63  70 2.74 116 2.82
                           105 2.83 117 2.84 118 3.08
 112  0.263  0.395  0.588-  17 2.40  40 2.58  64 2.59  34 2.59  11 2.60  15 2.65   9 2.77 106 2.80
                           107 2.82 105 2.92 118 3.01
 113  0.399  0.602  0.753-  17 2.44  64 2.49  72 2.52  41 2.52  66 2.56  47 2.62  70 2.67 107 2.79
                           119 2.87 120 2.88 118 2.94
 114  0.267  0.388  0.924-   7 2.36  66 2.52  36 2.55  13 2.57  11 2.63  42 2.74  17 2.75 103 2.77
                           108 2.88 107 2.96 120 3.00
 115  0.402  0.855  0.087-  25 2.50  43 2.50  19 2.51  68 2.51  50 2.57  72 2.64  54 2.71 109 2.85
                            98 2.95  97 2.97 102 2.99
 116  0.266  0.651  0.253-  21 2.38  44 2.51  68 2.56  15 2.57  19 2.65  13 2.67  38 2.80  98 2.80
                           111 2.82 109 2.91 110 2.93
 117  0.404  0.851  0.419-  68 2.44  70 2.50  52 2.56  27 2.59  45 2.61  50 2.67  21 2.70 111 2.84
                            98 2.97 100 2.98  99 3.00
 118  0.260  0.654  0.586-  23 2.44  46 2.46  17 2.53  21 2.56  40 2.60  70 2.63  15 2.65 100 2.72
                           113 2.94 112 3.01 111 3.08
 119  0.408  0.851  0.746-  70 2.40  47 2.43  72 2.46  52 2.55  29 2.62  54 2.64  23 2.64 113 2.87
                           101 2.99 100 3.01 102 3.02
 120  0.266  0.647  0.922-  72 2.45  23 2.49  19 2.49  13 2.53  48 2.58  42 2.68  17 2.72 109 2.78
                           102 2.81 113 2.88 114 3.00
 121  0.737  0.097  0.081-   6 2.42   2 2.47  49 2.50  12 2.57  25 2.66  55 2.67 139 2.77   8 2.78
                           132 2.90 128 2.93 127 3.04
 122  0.588  0.903  0.245-  50 2.37  25 2.43  43 2.52  68 2.53   2 2.60  27 2.61  45 2.73 128 2.86
                           139 2.93 140 3.06
 123  0.737  0.099  0.418-   4 2.52  51 2.54  10 2.56  27 2.61   2 2.62  57 2.67   8 2.68 141 2.88
                           130 2.95 129 3.03 128 3.05
 124  0.592  0.902  0.590-  29 2.38  52 2.41  27 2.49  70 2.56  47 2.57   4 2.65  45 2.69 130 2.86
                           143 2.86 142 2.92 141 3.06
 125  0.735  0.110  0.749-  12 2.54  29 2.55  10 2.57   4 2.57  59 2.60  53 2.62   6 2.67 131 2.80
                           130 2.87 143 2.92 132 3.01
 126  0.596  0.891  0.910-   6 2.50  29 2.53  47 2.56  25 2.56  54 2.60  43 2.61  72 2.66 143 2.81
                           144 2.86 139 2.91 132 3.01
 127  0.734  0.358  0.079-  18 2.52  31 2.55  61 2.56  12 2.57   8 2.62  55 2.62  14 2.64 133 2.86
                           138 2.88 134 2.91 121 3.04
 128  0.595  0.151  0.242-  31 2.34  56 2.49  50 2.58  33 2.66   8 2.66  25 2.67  27 2.79 134 2.81
                           122 2.86 121 2.93 123 3.05
 129  0.744  0.361  0.410-   8 2.41  57 2.45  63 2.47  14 2.55  10 2.62  33 2.63  16 2.67 135 2.77
                           136 3.01 123 3.03 134 3.04
 130  0.597  0.149  0.585-  33 2.48  35 2.51  58 2.57  29 2.57  27 2.58  10 2.58  52 2.67 124 2.86
                           125 2.87 123 2.95 136 2.96
 131  0.741  0.352  0.755-  12 2.51  65 2.52  18 2.55  59 2.59  10 2.63  35 2.64  16 2.68 125 2.80
                           137 2.99 138 3.06 136 3.08
 132  0.594  0.150  0.925-  31 2.42  60 2.43  12 2.56  35 2.56  25 2.58  54 2.60  29 2.72 138 2.86
                           121 2.90 125 3.01 126 3.01
 133  0.746  0.606  0.084-  14 2.43  61 2.46  67 2.52  18 2.54  24 2.63  20 2.64  37 2.77 127 2.86
                           140 2.91 139 2.94 144 3.00
 134  0.589  0.392  0.242-  37 2.47  31 2.49  56 2.50  62 2.54  39 2.64  14 2.65  33 2.68 128 2.81
                           140 2.88 127 2.91 129 3.04
 135  0.742  0.599  0.416-  63 2.38  14 2.45  16 2.52  69 2.53  39 2.54  20 2.63  22 2.68 129 2.77
                           141 2.93 140 2.95 142 3.05
 136  0.596  0.404  0.579-  39 2.47  33 2.51  64 2.55  41 2.59  58 2.62  16 2.66  35 2.73 142 2.87
                           130 2.96 129 3.01 131 3.08
 137  0.735  0.609  0.747-  71 2.50  16 2.53  22 2.57  41 2.58  65 2.60  24 2.61  18 2.63 142 2.88
                           143 2.89 144 2.89 131 2.99
 138  0.588  0.396  0.922-  66 2.40  60 2.52  37 2.56  41 2.59  31 2.61  35 2.64  18 2.70 132 2.86
                           144 2.87 127 2.88 131 3.06
 139  0.732  0.857  0.083-   6 2.47   2 2.49  43 2.52  24 2.54  20 2.55  67 2.58  49 2.69 121 2.77
                           126 2.91 122 2.93 133 2.94
 140  0.601  0.642  0.246-  37 2.47  20 2.50  39 2.56  62 2.58  43 2.59  45 2.61  68 2.68 134 2.88
                           133 2.91 135 2.95 122 3.06  14 3.07
 141  0.743  0.852  0.422-  22 2.40  69 2.41  20 2.47   4 2.56  45 2.59  51 2.66   2 2.68 123 2.88
                           135 2.93 124 3.06
 142  0.594  0.651  0.585-  47 2.45  45 2.45  70 2.49  22 2.57  41 2.59  64 2.60  39 2.60 136 2.87
                           137 2.88 124 2.92 135 3.05
 143  0.732  0.858  0.748-  22 2.50  24 2.53  53 2.56   4 2.56  47 2.59   6 2.61  71 2.63 126 2.81
                           124 2.86 137 2.89 125 2.92
 144  0.598  0.645  0.916-  24 2.53  41 2.55  47 2.57  43 2.63  37 2.64  72 2.65  66 2.69 126 2.86
                           138 2.87 137 2.89 133 3.00
 

IMPORTANT INFORMATION: All symmetrisations will be switched off!
NOSYMM: (Re-)initialisation of all symmetry stuff for point group C_1.

 
 
 KPOINTS: KPOINTS created by Atomic Simulation Env

Automatic generation of k-mesh.
 generate k-points for:    3    3    3
Space group operators:
 irot       det(A)        alpha          n_x          n_y          n_z        tau_x        tau_y        tau_z
    1     1.000000     0.000001     1.000000     0.000000     0.000000     0.000000     0.000000     0.000000
 
 Subroutine IBZKPT returns following result:
 ===========================================
 
 Found     14 irreducible k-points:
 
 Following reciprocal coordinates:
            Coordinates               Weight
  0.000000  0.000000  0.000000      1.000000
  0.333333  0.000000  0.000000      2.000000
 -0.000000  0.333333  0.000000      2.000000
  0.333333  0.333333  0.000000      2.000000
 -0.333333  0.333333  0.000000      2.000000
  0.000000  0.000000  0.333333      2.000000
  0.333333  0.000000  0.333333      2.000000
 -0.333333  0.000000  0.333333      2.000000
 -0.000000  0.333333  0.333333      2.000000
  0.333333  0.333333  0.333333      2.000000
 -0.333333  0.333333  0.333333      2.000000
  0.000000 -0.333333  0.333333      2.000000
  0.333333 -0.333333  0.333333      2.000000
 -0.333333 -0.333333  0.333333      2.000000
 
 Following cartesian coordinates:
            Coordinates               Weight
  0.000000  0.000000  0.000000      1.000000
  0.024139  0.000000  0.000000      2.000000
  0.003939  0.028755  0.000000      2.000000
  0.028078  0.028755  0.000000      2.000000
 -0.020200  0.028755  0.000000      2.000000
  0.000000  0.000000  0.027047      2.000000
  0.024139  0.000000  0.027047      2.000000
 -0.024139  0.000000  0.027047      2.000000
  0.003939  0.028755  0.027047      2.000000
  0.028078  0.028755  0.027047      2.000000
 -0.020200  0.028755  0.027047      2.000000
 -0.003939 -0.028755  0.027047      2.000000
  0.020200 -0.028755  0.027047      2.000000
 -0.028078 -0.028755  0.027047      2.000000
 


--------------------------------------------------------------------------------------------------------




 Dimension of arrays:
   k-points           NKPTS =     14   k-points in BZ     NKDIM =     14   number of bands    NBANDS=    604
   number of dos      NEDOS =    301   number of ions     NIONS =    144
   non local maximal  LDIM  =      6   non local SUM 2l+1 LMDIM =     18
   total plane-waves  NPLWV = 470400
   max r-space proj   IRMAX =      1   max aug-charges    IRDMAX=   9727
   dimension x,y,z NGX =    84 NGY =   70 NGZ =   80
   dimension x,y,z NGXF=   144 NGYF=  120 NGZF=  126
   support grid    NGXF=   144 NGYF=  120 NGZF=  126
   ions per type =              72  72
   NGX,Y,Z   is equivalent  to a cutoff of  10.02, 10.04, 10.79 a.u.
   NGXF,Y,Z  is equivalent  to a cutoff of  17.18, 17.21, 17.00 a.u.

 SYSTEM =  unknown system                          
 POSCAR =  Ni Ti                                   

 Startparameter for this run:
   NWRITE =      2    write-flag & timer
   PREC   = high      normal or accurate (medium, high low for compatibility)
   ISTART =      0    job   : 0-new  1-cont  2-samecut
   ICHARG =      2    charge: 1-file 2-atom 10-const
   ISPIN  =      1    spin polarized calculation?
   LNONCOLLINEAR =      F non collinear calculations
   LSORBIT =      F    spin-orbit coupling
   INIWAV =      1    electr: 0-lowe 1-rand  2-diag
   LASPH  =      F    aspherical Exc in radial PAW
   METAGGA=      F    non-selfconsistent MetaGGA calc.

 Electronic Relaxation 1
   ENCUT  =  337.0 eV  24.77 Ry    4.98 a.u.  20.86 17.35 18.45*2*pi/ulx,y,z
   ENINI  =  337.0     initial cutoff
   ENAUG  =  544.6 eV  augmentation charge cutoff
   NELM   =     60;   NELMIN=  2; NELMDL= -5     # of ELM steps 
   EDIFF  = 0.1E-03   stopping-criterion for ELM
   LREAL  =      F    real-space projection
   NLSPLINE    = F    spline interpolate recip. space projectors
   LCOMPAT=      F    compatible to vasp.4.4
   GGA_COMPAT  = T    GGA compatible to vasp.4.4-vasp.4.6
   LMAXPAW     = -100 max onsite density
   LMAXMIX     =    2 max onsite mixed and CHGCAR
   VOSKOWN=      0    Vosko Wilk Nusair interpolation
   ROPT   =    0.00000   0.00000
 Ionic relaxation
   EDIFFG = 0.1E-02   stopping-criterion for IOM
   NSW    =      0    number of steps for IOM
   NBLOCK =      1;   KBLOCK =      1    inner block; outer block 
   IBRION =     -1    ionic relax: 0-MD 1-quasi-New 2-CG
   NFREE  =      0    steps in history (QN), initial steepest desc. (CG)
   ISIF   =      2    stress and relaxation
   IWAVPR =     10    prediction:  0-non 1-charg 2-wave 3-comb
   ISYM   =      0    0-nonsym 1-usesym 2-fastsym
   LCORR  =      T    Harris-Foulkes like correction to forces

   POTIM  = 0.5000    time-step for ionic-motion
   TEIN   =    0.0    initial temperature
   TEBEG  =    0.0;   TEEND  =   0.0 temperature during run
   SMASS  =  -3.00    Nose mass-parameter (am)
   estimated Nose-frequenzy (Omega)   =  0.10E-29 period in steps =****** mass=  -0.444E-26a.u.
   SCALEE = 1.0000    scale energy and forces
   NPACO  =    256;   APACO  = 16.0  distance and # of slots for P.C.
   PSTRESS=    0.0 pullay stress

  Mass of Ions in am
   POMASS =  58.69 47.88
  Ionic Valenz
   ZVAL   =  10.00  4.00
  Atomic Wigner-Seitz radii
   RWIGS  =  -1.00 -1.00
  virtual crystal weights 
   VCA    =   1.00  1.00
   NELECT =    1008.0000    total number of electrons
   NUPDOWN=      -1.0000    fix difference up-down

 DOS related values:
   EMIN   =  10.00;   EMAX   =-10.00  energy-range for DOS
   EFERMI =   0.00
   ISMEAR =     1;   SIGMA  =   0.20  broadening in eV -4-tet -1-fermi 0-gaus

 Electronic relaxation 2 (details)
   IALGO  =     38    algorithm
   LDIAG  =      T    sub-space diagonalisation (order eigenvalues)
   LSUBROT=      F    optimize rotation matrix (better conditioning)
   TURBO    =      0    0=normal 1=particle mesh
   IRESTART =      0    0=no restart 2=restart with 2 vectors
   NREBOOT  =      0    no. of reboots
   NMIN     =      0    reboot dimension
   EREF     =   0.00    reference energy to select bands
   IMIX   =      4    mixing-type and parameters
     AMIX     =   0.40;   BMIX     =  1.00
     AMIX_MAG =   1.60;   BMIX_MAG =  1.00
     AMIN     =   0.10
     WC   =   100.;   INIMIX=   1;  MIXPRE=   1;  MAXMIX= -45

 Intra band minimization:
   WEIMIN = 0.0000     energy-eigenvalue tresh-hold
   EBREAK =  0.41E-07  absolut break condition
   DEPER  =   0.30     relativ break condition  

   TIME   =   0.40     timestep for ELM

  volume/ion in A,a.u.               =      13.70        92.45
  Fermi-wavevector in a.u.,A,eV,Ry     =   1.308791  2.473257 23.305897  1.712935
  Thomas-Fermi vector in A             =   2.439434
 
 Write flags
   LWAVE        =      T    write WAVECAR
   LDOWNSAMPLE  =      F    k-point downsampling of WAVECAR
   LCHARG       =      T    write CHGCAR
   LVTOT        =      F    write LOCPOT, total local potential
   LVHAR        =      F    write LOCPOT, Hartree potential only
   LELF         =      F    write electronic localiz. function (ELF)
   LORBIT       =      0    0 simple, 1 ext, 2 COOP (PROOUT), +10 PAW based schemes


 Dipole corrections
   LMONO  =      F    monopole corrections only (constant potential shift)
   LDIPOL =      F    correct potential (dipole corrections)
   IDIPOL =      0    1-x, 2-y, 3-z, 4-all directions 
   EPSILON=  1.0000000 bulk dielectric constant

 Exchange correlation treatment:
   GGA     =    --    GGA type
   LEXCH   =     2    internal setting for exchange type
   VOSKOWN=      0    Vosko Wilk Nusair interpolation
   LHFCALC =     F    Hartree Fock is set to
   LHFONE  =     F    Hartree Fock one center treatment
   AEXX    =    0.0000 exact exchange contribution

 Linear response parameters
   LEPSILON=     F    determine dielectric tensor
   LRPA    =     F    only Hartree local field effects (RPA)
   LNABLA  =     F    use nabla operator in PAW spheres
   LVEL    =     F    velocity operator in full k-point grid
   LINTERFAST=   F  fast interpolation
   KINTER  =     0    interpolate to denser k-point grid
   CSHIFT  =0.1000    complex shift for real part using Kramers Kronig
   OMEGAMAX=  -1.0    maximum frequency
   DEG_THRESHOLD= 0.2000000E-02 threshold for treating states as degnerate
   RTIME   =   -0.100 relaxation time in fs
  (WPLASMAI=    0.000 imaginary part of plasma frequency in eV, 0.658/RTIME)
   DFIELD  = 0.0000000 0.0000000 0.0000000 field for delta impulse in time
 
 Orbital magnetization related:
   ORBITALMAG=     F  switch on orbital magnetization
   LCHIMAG   =     F  perturbation theory with respect to B field
   DQ        =  0.001000  dq finite difference perturbation B field
   LLRAUG    =     F  two centre corrections for induced B field



--------------------------------------------------------------------------------------------------------


 Static calculation
 charge density and potential will be updated during run
 non-spin polarized calculation
 Variant of blocked Davidson
 Davidson routine will perform the subspace rotation
 perform sub-space diagonalisation
    after iterative eigenvector-optimisation
 modified Broyden-mixing scheme, WC =      100.0
 initial mixing is a Kerker type mixing with AMIX =  0.4000 and BMIX =      1.0000
 Hartree-type preconditioning will be used
 using additional bands          100
 reciprocal scheme for non local part
 use partial core corrections
 calculate Harris-corrections to forces 
   (improved forces if not selfconsistent)
 use of overlap-Matrix (Vanderbilt PP)
 Methfessel and Paxton  Order N= 1 SIGMA  =   0.20


--------------------------------------------------------------------------------------------------------


  energy-cutoff  :      337.02
  volume of cell :     1972.76
      direct lattice vectors                 reciprocal lattice vectors
    13.809043400 -1.891603649  0.000000000     0.072416312  0.000000000  0.000000000
     0.000000000 11.592000000  0.000000000     0.011817026  0.086266391  0.000000000
     0.000000000  0.000000000 12.324000000     0.000000000  0.000000000  0.081142486

  length of vectors
    13.938000000 11.592000000 12.324000000     0.072416312  0.087071995  0.081142486


 
 k-points in units of 2pi/SCALE and weight: KPOINTS created by Atomic Simulation Env
   0.00000000  0.00000000  0.00000000       0.037
   0.02413877  0.00000000  0.00000000       0.074
   0.00393901  0.02875546  0.00000000       0.074
   0.02807778  0.02875546  0.00000000       0.074
  -0.02019976  0.02875546  0.00000000       0.074
   0.00000000  0.00000000  0.02704750       0.074
   0.02413877  0.00000000  0.02704750       0.074
  -0.02413877  0.00000000  0.02704750       0.074
   0.00393901  0.02875546  0.02704750       0.074
   0.02807778  0.02875546  0.02704750       0.074
  -0.02019976  0.02875546  0.02704750       0.074
  -0.00393901 -0.02875546  0.02704750       0.074
   0.02019976 -0.02875546  0.02704750       0.074
  -0.02807778 -0.02875546  0.02704750       0.074
 
 k-points in reciprocal lattice and weights: KPOINTS created by Atomic Simulation Env
   0.00000000  0.00000000  0.00000000       0.037
   0.33333333  0.00000000  0.00000000       0.074
  -0.00000000  0.33333333  0.00000000       0.074
   0.33333333  0.33333333  0.00000000       0.074
  -0.33333333  0.33333333  0.00000000       0.074
   0.00000000  0.00000000  0.33333333       0.074
   0.33333333  0.00000000  0.33333333       0.074
  -0.33333333  0.00000000  0.33333333       0.074
  -0.00000000  0.33333333  0.33333333       0.074
   0.33333333  0.33333333  0.33333333       0.074
  -0.33333333  0.33333333  0.33333333       0.074
   0.00000000 -0.33333333  0.33333333       0.074
   0.33333333 -0.33333333  0.33333333       0.074
  -0.33333333 -0.33333333  0.33333333       0.074
 
 position of ions in fractional coordinates (direct lattice) 
   0.22386487  0.01290521  0.07522094
   0.77207046  0.98413821  0.24338427
   0.22078617  0.01512527  0.40899688
   0.77740226  0.98967612  0.58428578
   0.23051801  0.01699782  0.74326589
   0.76825734  0.98391409  0.92280335
   0.22776781  0.26551417  0.07551588
   0.77855624  0.24972565  0.25402736
   0.22199296  0.25241521  0.40886671
   0.77752346  0.23614730  0.57952851
   0.21930717  0.25687734  0.75315482
   0.77369037  0.23273239  0.91724921
   0.21984221  0.51375097  0.08167278
   0.77008657  0.49728502  0.24752947
   0.22173447  0.51558658  0.41549969
   0.78166573  0.49461851  0.58530827
   0.23090892  0.51152456  0.74193233
   0.77662997  0.48798592  0.91710578
   0.22783148  0.76833162  0.07801591
   0.76967788  0.74730609  0.25319406
   0.21811296  0.74999087  0.40901179
   0.77125764  0.74631186  0.58396350
   0.22595058  0.75113933  0.75487882
   0.77106593  0.74536748  0.91484681
   0.55180363  0.00145158  0.07888201
   0.11135144  0.99223369  0.24208952
   0.55398883  0.00998388  0.42429438
   0.11328988  0.98703122  0.58323223
   0.55994000  0.01073921  0.74703607
   0.11534342  0.99323066  0.91472154
   0.56027873  0.25460613  0.08743518
   0.10198870  0.23554020  0.25494571
   0.56180452  0.26455152  0.42328491
   0.11452303  0.23333500  0.57902243
   0.55680695  0.25879834  0.75169280
   0.10898428  0.24817013  0.92346208
   0.55147012  0.51589812  0.08864193
   0.10124256  0.48396712  0.24727464
   0.56339288  0.51710909  0.41601558
   0.10893792  0.49596143  0.57985587
   0.55572414  0.51564197  0.75126351
   0.10369010  0.49492091  0.91848476
   0.55661248  0.76718263  0.08503272
   0.11302943  0.74276621  0.25207848
   0.56367885  0.75710208  0.41943831
   0.10755516  0.73854978  0.58188594
   0.55403431  0.75732295  0.74745774
   0.11257745  0.74795966  0.92322041
   0.89278320  0.01349379  0.08364186
   0.44552328  0.99252823  0.24944352
   0.89625006  0.01650637  0.41972433
   0.44260651  0.98501489  0.58279585
   0.88821561  0.00201257  0.74501725
   0.44159398  0.99464287  0.91193110
   0.89196299  0.25894308  0.07769672
   0.44336415  0.24174720  0.25250142
   0.88918953  0.26531903  0.42226079
   0.44215675  0.24711605  0.59063301
   0.89607274  0.25197794  0.75438557
   0.44495619  0.23710168  0.91272427
   0.88884028  0.50266859  0.08984597
   0.44220192  0.49898905  0.25221688
   0.88681475  0.51273542  0.40904576
   0.43966711  0.49663625  0.58646020
   0.88807968  0.50460050  0.75405992
   0.44097686  0.48295390  0.91680487
   0.89001006  0.76332967  0.08351414
   0.44219312  0.74872353  0.25493283
   0.88567171  0.75707929  0.41032163
   0.44353767  0.74624330  0.58652711
   0.88656894  0.75118306  0.74218326
   0.43532476  0.73896143  0.91039179
   0.06758936  0.10099392  0.08165802
   0.92842886  0.89429758  0.25300583
   0.06692496  0.09834135  0.42154730
   0.93464862  0.89348765  0.58645444
   0.06631609  0.10208958  0.75743086
   0.92834701  0.89898889  0.91367276
   0.06895345  0.35887212  0.07689429
   0.92711199  0.15252646  0.24665067
   0.07201129  0.34667412  0.41786948
   0.92275014  0.14630589  0.58657511
   0.07450561  0.35504400  0.75721510
   0.92912027  0.15276457  0.91078343
   0.07576591  0.60889198  0.08955382
   0.92965784  0.40022187  0.24754785
   0.06655360  0.61124465  0.41585382
   0.92900200  0.39420033  0.57906568
   0.07772303  0.60284957  0.75662991
   0.92965332  0.38753788  0.92363579
   0.06584760  0.85778186  0.08745336
   0.93399344  0.65024927  0.24390248
   0.07289837  0.86042599  0.41056756
   0.92466853  0.64655775  0.59095417
   0.07739861  0.85952286  0.75091269
   0.92260135  0.63714793  0.91052164
   0.39926746  0.11145045  0.08443850
   0.25690272  0.89062557  0.25395693
   0.40720402  0.11035950  0.41109691
   0.25422741  0.88704367  0.58311174
   0.40620456  0.10875323  0.75274640
   0.25779527  0.88756226  0.91455833
   0.40102659  0.35608162  0.08373370
   0.26735261  0.14252009  0.24295620
   0.40715800  0.36242300  0.42397235
   0.26202052  0.15290447  0.58563074
   0.40394412  0.36214435  0.74470879
   0.25578803  0.13842078  0.91675856
   0.40012230  0.60886763  0.08081364
   0.26757419  0.39805517  0.25614787
   0.40532551  0.60608694  0.40880450
   0.26255392  0.39467663  0.58832133
   0.39900582  0.60196879  0.75290602
   0.26726272  0.38796962  0.92440375
   0.40236111  0.85539139  0.08739081
   0.26638955  0.65084784  0.25321417
   0.40403977  0.85101643  0.41864523
   0.26018975  0.65360979  0.58621877
   0.40782338  0.85081991  0.74598128
   0.26634008  0.64691694  0.92157029
   0.73652162  0.09657841  0.08135223
   0.58844495  0.90293666  0.24483306
   0.73655759  0.09929012  0.41816800
   0.59181439  0.90233895  0.58998110
   0.73515070  0.10987199  0.74863435
   0.59622331  0.89128064  0.91020719
   0.73365186  0.35789960  0.07882261
   0.59481361  0.15056803  0.24224814
   0.74352744  0.36128108  0.41015488
   0.59672471  0.14946893  0.58512238
   0.74071618  0.35204356  0.75481319
   0.59375336  0.15035108  0.92462629
   0.74595347  0.60636219  0.08376219
   0.58925314  0.39224881  0.24231124
   0.74156547  0.59947924  0.41572386
   0.59571484  0.40424262  0.57852818
   0.73462824  0.60887115  0.74671099
   0.58769153  0.39609556  0.92224668
   0.73202651  0.85690731  0.08276536
   0.60101530  0.64185154  0.24621993
   0.74265561  0.85231098  0.42227932
   0.59350167  0.65102188  0.58538618
   0.73196076  0.85768116  0.74829358
   0.59810981  0.64536244  0.91585665
 
 position of ions in cartesian coordinates  (Angst):
   3.09135977 -0.27386643  0.92702287
  10.66155455  9.94767886  2.99946772
   3.04884582 -0.24230784  5.04047752
  10.73518153 10.00178864  7.20073797
   3.18323320 -0.23901000  9.16000884
  10.60889899  9.95229376 11.37262850
   3.14525555  2.64699381  0.93065766
  10.75111690  1.42209990  3.13063313
   3.06551044  2.50607439  5.03887339
  10.73685514  1.26665330  7.14210933
   3.02842225  2.56287987  9.28188003
  10.68392389  1.23431837 11.30417928
   3.03581064  5.53954693  1.00653537
  10.63415887  4.30782940  3.05055317
   3.06194095  5.55724592  5.12061824
  10.79405604  4.25501598  7.21333914
   3.18863127  5.49280457  9.14357407
  10.72451702  4.18765666 11.30241162
   3.14613475  8.47553324  0.96146810
  10.62851518  7.20684677  3.12036363
   3.01193139  8.28131087  5.04066130
  10.65033025  7.19233327  7.19676621
   3.12016141  8.27979813  9.30312653
  10.64768289  7.18174872 11.27457213
   7.61988021 -1.02696705  0.97214187
   1.53765689 11.29134017  2.98351120
   7.65005573 -0.93219409  5.22900400
   1.56442486 11.22736633  7.18775394
   7.73223573 -0.93469559  9.20647248
   1.59278233 11.29534582 11.27302823
   7.73691334  1.89156892  1.07755111
   1.40836640  2.53745980  3.14195091
   7.75798303  2.00396973  5.21656317
   1.58145351  2.48818709  7.13587242
   7.68897138  1.94673226  9.26386210
   1.50496868  2.67063306 11.38074669
   7.61527480  4.93712816  1.09242309
   1.39806289  5.41863603  3.04741271
   7.77991672  4.92861259  5.12697605
   1.50432846  5.54311750  7.14614377
   7.67401880  4.92611186  9.25857144
   1.43186114  5.54098263 11.31940624
   7.68628590  7.84029083  1.04794322
   1.56082826  8.39633908  3.10661524
   7.78386572  7.71007032  5.16915776
   1.48523389  8.35781733  7.17116227
   7.65068381  7.73087432  9.21166925
   1.55458686  8.45739644 11.37776839
  12.32848201 -1.53237192  1.03080233
   6.15225035 10.66263383  3.07414198
  12.37635604 -1.50400810  5.17268265
   6.11197245 10.58105652  7.18237600
  12.26540796 -1.65682217  9.18159255
   6.09799040 10.69457936 11.23863889
  12.31715571  1.31442777  0.95753433
   6.12243481  1.96366425  3.11182747
  12.27885679  1.39358405  5.20394192
   6.10576168  2.02818388  7.27896120
  12.37390735  1.22591382  9.29704775
   6.14441929  1.90680191 11.24841386
  12.27403397  4.14560074  1.10726169
   6.10638544  4.94781030  3.10832088
  12.24606334  4.26612701  5.04107994
   6.07138219  4.92533148  7.22753554
  12.26353088  4.16943419  9.29303448
   6.08946863  4.76424812 11.29870325
  12.29018753  7.16497124  1.02922830
   6.10626393  7.84274909  3.14179218
  12.23027909  7.10072334  5.05680375
   6.12483092  7.81145488  7.22836010
  12.24266891  7.03067695  9.14666653
   6.01141857  7.74257899 11.21966838
   0.93334437  1.04286927  1.00635349
  12.82071442  8.61047813  3.11804390
   0.92416972  1.01337742  5.19514891
  12.90660339  8.58932406  7.22746452
   0.91576170  1.05797865  9.33457791
  12.81958413  8.66501465 11.26010313
   0.95218113  4.02961299  0.94764520
  12.80252978  0.01435833  3.03972283
   0.99440696  3.88242963  5.14982352
  12.74229678 -0.04949966  7.22895167
   1.02885126  3.97473495  9.33191895
  12.83026208  0.01331961 11.22449494
   1.04625475  6.91495672  1.10366122
  12.83768551  2.88082771  3.05077967
   0.91904153  6.95965498  5.12498243
  12.82862899  2.81226659  7.13640540
   1.07328075  6.84121108  9.32470703
  12.83762309  2.73380348 11.38288745
   0.90929237  9.81884973  1.07777524
  12.89755598  5.77094418  3.00585419
   1.00665673  9.83616330  5.05983466
  12.76878781  5.74579108  7.28291915
   1.06880070  9.81718145  9.25424805
  12.74024212  5.64062277 11.22126869
   5.51350165  0.53667784  1.04062009
   3.54758078  9.83817348  3.12976517
   5.62309794  0.50901875  5.06635828
   3.51063738  9.80171276  7.18626902
   5.60929644  0.49228946  9.27684658
   3.55990605  9.80097529 11.27101684
   5.53779365  3.36911475  1.03193406
   3.69188373  1.14636768  2.99419222
   5.62246247  3.43102584  5.22503522
   3.61825277  1.27682960  7.21731324
   5.57808192  3.43387508  9.17779113
   3.53218804  1.12072416 11.29813243
   5.52530617  6.30112071  0.99594733
   3.69494363  4.10811116  3.15676640
   5.59715750  6.25904464  5.03810666
   3.62561842  4.07844360  7.25047211
   5.50988865  6.22326131  9.27881377
   3.69064249  3.99178873 11.39235183
   5.55622205  9.15458924  1.07700435
   3.67858490  7.04072476  3.12061145
   5.57940271  9.10069936  5.15938387
   3.59297159  7.08446874  7.22456018
   5.63165076  9.09126423  9.19347334
   3.67790172  6.99525126 11.35743222
  10.17065905 -0.27367011  1.00258484
   8.12586182  9.35373720  3.01732257
  10.17115567 -0.24230398  5.15350237
   8.17239057  9.34043489  7.27092710
  10.15172798 -0.11697760  9.22616974
   8.23327362  9.20390701 11.21739345
  10.13103037  2.76099359  0.97140983
   8.21380697  0.62023298  2.98546609
  10.26740266  2.78151111  5.05474868
   8.24019747  0.60387718  7.21104816
  10.22858193  2.67974752  9.30231774
   8.19916585  0.61972366 11.39509436
  10.30090387  5.61790219  1.03228519
   8.13702218  3.43231481  2.98624371
  10.24030969  5.54641538  5.12338086
   8.22625208  3.55912412  7.12978125
  10.14451330  5.66840887  9.20246628
   8.11545781  3.47986027 11.36576809
  10.10858588  8.54856547  1.02000030
   8.29944639  6.30346032  3.03441440
  10.25536354  8.47517885  5.20417030
   8.19569036  6.42397575  7.21429923
  10.10767793  8.55766032  9.22197010
   8.25932430  6.34965474 11.28701735
 


--------------------------------------------------------------------------------------------------------


 k-point  1 :   0.0000 0.0000 0.0000  plane waves:   27727
 k-point  2 :   0.3333 0.0000 0.0000  plane waves:   27752
 k-point  3 :  -0.0000 0.3333 0.0000  plane waves:   27717
 k-point  4 :   0.3333 0.3333 0.0000  plane waves:   27701
 k-point  5 :  -0.3333 0.3333 0.0000  plane waves:   27722
 k-point  6 :   0.0000 0.0000 0.3333  plane waves:   27661
 k-point  7 :   0.3333 0.0000 0.3333  plane waves:   27717
 k-point  8 :  -0.3333 0.0000 0.3333  plane waves:   27717
 k-point  9 :  -0.0000 0.3333 0.3333  plane waves:   27702
 k-point 10 :   0.3333 0.3333 0.3333  plane waves:   27700
 k-point 11 :  -0.3333 0.3333 0.3333  plane waves:   27712
 k-point 12 :   0.0000-0.3333 0.3333  plane waves:   27702
 k-point 13 :   0.3333-0.3333 0.3333  plane waves:   27712
 k-point 14 :  -0.3333-0.3333 0.3333  plane waves:   27700

 maximum and minimum number of plane-waves per node :       896      837

 maximum number of plane-waves:     27752
 maximum index in each direction: 
   IXMAX=   21   IYMAX=   17   IZMAX=   18
   IXMIN=  -21   IYMIN=  -17   IZMIN=  -18


 parallel 3D FFT for wavefunctions:
    minimum data exchange during FFTs selected (reduces bandwidth)
 parallel 3D FFT for charge:
    minimum data exchange during FFTs selected (reduces bandwidth)


 total amount of memory used by VASP MPI-rank0   174126. kBytes
=======================================================================

   base      :      30000. kBytes
   nonl-proj :       5575. kBytes
   fftplans  :       3093. kBytes
   grid      :       4956. kBytes
   one-center:         77. kBytes
   wavefun   :     130425. kBytes
 
     INWAV:  cpu time    0.0001: real time    0.0003
 Broyden mixing: mesh for mixing (old mesh)
   NGX = 41   NGY = 35   NGZ = 37
  (NGX  =144   NGY  =120   NGZ  =126)
  gives a total of  53095 points

 initial charge density was supplied:
 charge density of overlapping atoms calculated
 number of electron    1008.0000000 magnetization 
 keeping initial charge density in first step


--------------------------------------------------------------------------------------------------------


 Maximum index for augmentation-charges          654 (set IRDMAX)


--------------------------------------------------------------------------------------------------------


 First call to EWALD:  gamma=   0.141
 Maximum number of real-space cells 3x 3x 3
 Maximum number of reciprocal cells 3x 3x 3

    FEWALD:  cpu time    0.0066: real time    0.0066


--------------------------------------- Iteration      1(   1)  ---------------------------------------


    POTLOK:  cpu time    0.0101: real time    0.0228
    SETDIJ:  cpu time    0.0066: real time    0.0066
     EDDAV:  cpu time   17.7079: real time   17.7585
       DOS:  cpu time    0.0077: real time    0.0077
    --------------------------------------------
      LOOP:  cpu time   17.7323: real time   17.7956

 eigenvalue-minimisations  : 16912
 total energy-change (2. order) : 0.6058630E+04  (-0.2892512E+05)
 number of electron    1008.0000000 magnetization 
 augmentation part     1008.0000000 magnetization 

 Free energy of the ion-electron system (eV)
  ---------------------------------------------------
  alpha Z        PSCENC =      4905.19536717
  Ewald energy   TEWEN  =    -66023.71025417
  -Hartree energ DENC   =    -26933.41485520
  -exchange      EXHF   =         0.00000000
  -V(xc)+E(xc)   XCENC  =      -295.96119290
  PAW double counting   =     78341.85720068   -80458.36686316
  entropy T*S    EENTRO =        -0.00272466
  eigenvalues    EBANDS =     11727.43206965
  atomic energy  EATOM  =     84795.60080690
  Solvation  Ediel_sol  =         0.00000000
  ---------------------------------------------------
  free energy    TOTEN  =      6058.62955431 eV

  energy without entropy =     6058.63227897  energy(sigma->0) =     6058.63046253


--------------------------------------------------------------------------------------------------------




--------------------------------------- Iteration      1(   2)  ---------------------------------------


     EDDAV:  cpu time   17.7431: real time   17.7959
       DOS:  cpu time    0.0111: real time    0.0111
    --------------------------------------------
      LOOP:  cpu time   17.7543: real time   17.8070

 eigenvalue-minimisations  : 16912
 total energy-change (2. order) :-0.6458993E+04  (-0.6239348E+04)
 number of electron    1008.0000000 magnetization 
 augmentation part     1008.0000000 magnetization 

 Free energy of the ion-electron system (eV)
  ---------------------------------------------------
  alpha Z        PSCENC =      4905.19536717
  Ewald energy   TEWEN  =    -66023.71025417
  -Hartree energ DENC   =    -26933.41485520
  -exchange      EXHF   =         0.00000000
  -V(xc)+E(xc)   XCENC  =      -295.96119290
  PAW double counting   =     78341.85720068   -80458.36686316
  entropy T*S    EENTRO =        -0.02227209
  eigenvalues    EBANDS =      5268.45871386
  atomic energy  EATOM  =     84795.60080690
  Solvation  Ediel_sol  =         0.00000000
  ---------------------------------------------------
  free energy    TOTEN  =      -400.36334891 eV

  energy without entropy =     -400.34107682  energy(sigma->0) =     -400.35592488


--------------------------------------------------------------------------------------------------------




--------------------------------------- Iteration      1(   3)  ---------------------------------------


     EDDAV:  cpu time   20.6035: real time   20.6673
       DOS:  cpu time    0.0114: real time    0.0114
    --------------------------------------------
      LOOP:  cpu time   20.6149: real time   20.6787

 eigenvalue-minimisations  : 20708
 total energy-change (2. order) :-0.8484674E+03  (-0.7863842E+03)
 number of electron    1008.0000000 magnetization 
 augmentation part     1008.0000000 magnetization 

 Free energy of the ion-electron system (eV)
  ---------------------------------------------------
  alpha Z        PSCENC =      4905.19536717
  Ewald energy   TEWEN  =    -66023.71025417
  -Hartree energ DENC   =    -26933.41485520
  -exchange      EXHF   =         0.00000000
  -V(xc)+E(xc)   XCENC  =      -295.96119290
  PAW double counting   =     78341.85720068   -80458.36686316
  entropy T*S    EENTRO =        -0.03284028
  eigenvalues    EBANDS =      4420.00190933
  atomic energy  EATOM  =     84795.60080690
  Solvation  Ediel_sol  =         0.00000000
  ---------------------------------------------------
  free energy    TOTEN  =     -1248.83072162 eV

  energy without entropy =    -1248.79788135  energy(sigma->0) =    -1248.81977487


--------------------------------------------------------------------------------------------------------




--------------------------------------- Iteration      1(   4)  ---------------------------------------


     EDDAV:  cpu time   21.3936: real time   21.4586
       DOS:  cpu time    0.0118: real time    0.0119
    --------------------------------------------
      LOOP:  cpu time   21.4054: real time   21.4704

 eigenvalue-minimisations  : 21936
 total energy-change (2. order) :-0.7042706E+02  (-0.6901513E+02)
 number of electron    1008.0000000 magnetization 
 augmentation part     1008.0000000 magnetization 

 Free energy of the ion-electron system (eV)
  ---------------------------------------------------
  alpha Z        PSCENC =      4905.19536717
  Ewald energy   TEWEN  =    -66023.71025417
  -Hartree energ DENC   =    -26933.41485520
  -exchange      EXHF   =         0.00000000
  -V(xc)+E(xc)   XCENC  =      -295.96119290
  PAW double counting   =     78341.85720068   -80458.36686316
  entropy T*S    EENTRO =        -0.04059256
  eigenvalues    EBANDS =      4349.58260450
  atomic energy  EATOM  =     84795.60080690
  Solvation  Ediel_sol  =         0.00000000
  ---------------------------------------------------
  free energy    TOTEN  =     -1319.25777874 eV

  energy without entropy =    -1319.21718617  energy(sigma->0) =    -1319.24424788


--------------------------------------------------------------------------------------------------------




--------------------------------------- Iteration      1(   5)  ---------------------------------------


     EDDAV:  cpu time   22.0254: real time   22.0927
       DOS:  cpu time    0.0117: real time    0.0117
    CHARGE:  cpu time    0.4024: real time    0.4033
    MIXING:  cpu time    0.0052: real time    0.0053
    --------------------------------------------
      LOOP:  cpu time   22.4447: real time   22.5131

 eigenvalue-minimisations  : 22728
 total energy-change (2. order) :-0.2024499E+01  (-0.2004147E+01)
 number of electron    1008.0000348 magnetization 
 augmentation part      454.8948475 magnetization 

 Broyden mixing:
  rms(total) = 0.13897E+02    rms(broyden)= 0.13896E+02
  rms(prec ) = 0.14796E+02
  weight for this iteration     100.00

 Free energy of the ion-electron system (eV)
  ---------------------------------------------------
  alpha Z        PSCENC =      4905.19536717
  Ewald energy   TEWEN  =    -66023.71025417
  -Hartree energ DENC   =    -26933.41485520
  -exchange      EXHF   =         0.00000000
  -V(xc)+E(xc)   XCENC  =      -295.96119290
  PAW double counting   =     78341.85720068   -80458.36686316
  entropy T*S    EENTRO =        -0.04049430
  eigenvalues    EBANDS =      4347.55800755
  atomic energy  EATOM  =     84795.60080690
  Solvation  Ediel_sol  =         0.00000000
  ---------------------------------------------------
  free energy    TOTEN  =     -1321.28227743 eV

  energy without entropy =    -1321.24178313  energy(sigma->0) =    -1321.26877933


--------------------------------------------------------------------------------------------------------




--------------------------------------- Iteration      1(   6)  ---------------------------------------


    POTLOK:  cpu time    0.0082: real time    0.0134
    SETDIJ:  cpu time    0.0067: real time    0.0067
     EDDAV:  cpu time   19.9101: real time   19.9673
       DOS:  cpu time    0.0131: real time    0.0131
    CHARGE:  cpu time    0.3786: real time    0.3798
    MIXING:  cpu time    0.0125: real time    0.0126
    --------------------------------------------
      LOOP:  cpu time   20.3291: real time   20.3928

 eigenvalue-minimisations  : 19764
 total energy-change (2. order) : 0.1150349E+03  (-0.1203841E+03)
 number of electron    1008.0000456 magnetization 
 augmentation part      532.6414606 magnetization 

 Broyden mixing:
  rms(total) = 0.87039E+01    rms(broyden)= 0.87029E+01
  rms(prec ) = 0.10048E+02
  weight for this iteration     100.00

 eigenvalues of (default mixing * dielectric matrix)
  average eigenvalue GAMMA=   0.7698
  0.7698

 Free energy of the ion-electron system (eV)
  ---------------------------------------------------
  alpha Z        PSCENC =      4905.19536717
  Ewald energy   TEWEN  =    -66023.71025417
  -Hartree energ DENC   =    -25160.89572974
  -exchange      EXHF   =         0.00000000
  -V(xc)+E(xc)   XCENC  =      -375.23496413
  PAW double counting   =     88446.98127597   -90258.42751526
  entropy T*S    EENTRO =         0.05035827
  eigenvalues    EBANDS =      2464.19325507
  atomic energy  EATOM  =     84795.60080690
  Solvation  Ediel_sol  =         0.00000000
  ---------------------------------------------------
  free energy    TOTEN  =     -1206.24739992 eV

  energy without entropy =    -1206.29775819  energy(sigma->0) =    -1206.26418601


--------------------------------------------------------------------------------------------------------




--------------------------------------- Iteration      1(   7)  ---------------------------------------


    POTLOK:  cpu time    0.0079: real time    0.0123
    SETDIJ:  cpu time    0.0068: real time    0.0068
     EDDAV:  cpu time   26.2619: real time   26.3369
       DOS:  cpu time    0.0134: real time    0.0135
    CHARGE:  cpu time    0.3953: real time    0.3962
    MIXING:  cpu time    0.0047: real time    0.0047
    --------------------------------------------
      LOOP:  cpu time   26.6900: real time   26.7704

 eigenvalue-minimisations  : 28032
 total energy-change (2. order) :-0.2136745E+03  (-0.2709672E+03)
 number of electron    1008.0000195 magnetization 
 augmentation part      470.7644254 magnetization 

 Broyden mixing:
  rms(total) = 0.22100E+02    rms(broyden)= 0.22098E+02
  rms(prec ) = 0.27915E+02
  weight for this iteration     100.00

 eigenvalues of (default mixing * dielectric matrix)
  average eigenvalue GAMMA=   0.6760
  1.1633  0.1887

 Free energy of the ion-electron system (eV)
  ---------------------------------------------------
  alpha Z        PSCENC =      4905.19536717
  Ewald energy   TEWEN  =    -66023.71025417
  -Hartree energ DENC   =    -26636.22336785
  -exchange      EXHF   =         0.00000000
  -V(xc)+E(xc)   XCENC  =      -302.86929293
  PAW double counting   =     94892.32948656   -97189.30867317
  entropy T*S    EENTRO =        -0.03571126
  eigenvalues    EBANDS =      4139.09974481
  atomic energy  EATOM  =     84795.60080690
  Solvation  Ediel_sol  =         0.00000000
  ---------------------------------------------------
  free energy    TOTEN  =     -1419.92189393 eV

  energy without entropy =    -1419.88618267  energy(sigma->0) =    -1419.90999018


--------------------------------------------------------------------------------------------------------




--------------------------------------- Iteration      1(   8)  ---------------------------------------


    POTLOK:  cpu time    0.0110: real time    0.0189
    SETDIJ:  cpu time    0.0063: real time    0.0063
     EDDAV:  cpu time   23.7299: real time   23.7978
       DOS:  cpu time    0.0135: real time    0.0135
    CHARGE:  cpu time    0.3893: real time    0.3904
    MIXING:  cpu time    0.0047: real time    0.0047
    --------------------------------------------
      LOOP:  cpu time   24.1547: real time   24.2316

 eigenvalue-minimisations  : 25112
 total energy-change (2. order) : 0.2493013E+03  (-0.2270920E+03)
 number of electron    1008.0000426 magnetization 
 augmentation part      524.5088392 magnetization 

 Broyden mixing:
  rms(total) = 0.72689E+01    rms(broyden)= 0.72630E+01
  rms(prec ) = 0.95932E+01
  weight for this iteration     100.00

 eigenvalues of (default mixing * dielectric matrix)
  average eigenvalue GAMMA=   0.5502
  1.1478  0.3562  0.1466

 Free energy of the ion-electron system (eV)
  ---------------------------------------------------
  alpha Z        PSCENC =      4905.19536717
  Ewald energy   TEWEN  =    -66023.71025417
  -Hartree energ DENC   =    -25340.26250090
  -exchange      EXHF   =         0.00000000
  -V(xc)+E(xc)   XCENC  =      -362.54759089
  PAW double counting   =     95846.51981873   -98005.05908341
  entropy T*S    EENTRO =         0.03421413
  eigenvalues    EBANDS =      3013.60867155
  atomic energy  EATOM  =     84795.60080690
  Solvation  Ediel_sol  =         0.00000000
  ---------------------------------------------------
  free energy    TOTEN  =     -1170.62055090 eV

  energy without entropy =    -1170.65476503  energy(sigma->0) =    -1170.63195561


--------------------------------------------------------------------------------------------------------




--------------------------------------- Iteration      1(   9)  ---------------------------------------


    POTLOK:  cpu time    0.0080: real time    0.0131
    SETDIJ:  cpu time    0.0071: real time    0.0071
     EDDAV:  cpu time   24.2774: real time   24.3464
       DOS:  cpu time    0.0128: real time    0.0129
    CHARGE:  cpu time    0.3759: real time    0.3768
    MIXING:  cpu time    0.0048: real time    0.0048
    --------------------------------------------
      LOOP:  cpu time   24.6860: real time   24.7611

 eigenvalue-minimisations  : 25556
 total energy-change (2. order) : 0.1212380E+02  (-0.3999775E+02)
 number of electron    1008.0000415 magnetization 
 augmentation part      527.7539953 magnetization 

 Broyden mixing:
  rms(total) = 0.43624E+01    rms(broyden)= 0.43602E+01
  rms(prec ) = 0.54416E+01
  weight for this iteration     100.00

 eigenvalues of (default mixing * dielectric matrix)
  average eigenvalue GAMMA=   0.5546
  1.0404  0.8320  0.1729  0.1729

 Free energy of the ion-electron system (eV)
  ---------------------------------------------------
  alpha Z        PSCENC =      4905.19536717
  Ewald energy   TEWEN  =    -66023.71025417
  -Hartree energ DENC   =    -25206.30361512
  -exchange      EXHF   =         0.00000000
  -V(xc)+E(xc)   XCENC  =      -368.37509427
  PAW double counting   =     96262.10894625   -98419.25181792
  entropy T*S    EENTRO =         0.15663540
  eigenvalues    EBANDS =      2896.08227936
  atomic energy  EATOM  =     84795.60080690
  Solvation  Ediel_sol  =         0.00000000
  ---------------------------------------------------
  free energy    TOTEN  =     -1158.49674640 eV

  energy without entropy =    -1158.65338180  energy(sigma->0) =    -1158.54895820


--------------------------------------------------------------------------------------------------------




--------------------------------------- Iteration      1(  10)  ---------------------------------------


    POTLOK:  cpu time    0.0085: real time    0.0137
    SETDIJ:  cpu time    0.0066: real time    0.0066
     EDDAV:  cpu time   24.5716: real time   24.6422
       DOS:  cpu time    0.0132: real time    0.0132
    CHARGE:  cpu time    0.3740: real time    0.3749
    MIXING:  cpu time    0.0046: real time    0.0046
    --------------------------------------------
      LOOP:  cpu time   24.9785: real time   25.0553

 eigenvalue-minimisations  : 26016
 total energy-change (2. order) : 0.1308612E+02  (-0.1095872E+02)
 number of electron    1008.0000421 magnetization 
 augmentation part      521.4443669 magnetization 

 Broyden mixing:
  rms(total) = 0.27208E+01    rms(broyden)= 0.27202E+01
  rms(prec ) = 0.36230E+01
  weight for this iteration     100.00

 eigenvalues of (default mixing * dielectric matrix)
  average eigenvalue GAMMA=   0.5106
  1.1200  0.7768  0.1582  0.2490  0.2490

 Free energy of the ion-electron system (eV)
  ---------------------------------------------------
  alpha Z        PSCENC =      4905.19536717
  Ewald energy   TEWEN  =    -66023.71025417
  -Hartree energ DENC   =    -25352.18868104
  -exchange      EXHF   =         0.00000000
  -V(xc)+E(xc)   XCENC  =      -360.96522928
  PAW double counting   =     97668.10436205   -99893.90146116
  entropy T*S    EENTRO =         0.14529978
  eigenvalues    EBANDS =      3116.30916751
  atomic energy  EATOM  =     84795.60080690
  Solvation  Ediel_sol  =         0.00000000
  ---------------------------------------------------
  free energy    TOTEN  =     -1145.41062224 eV

  energy without entropy =    -1145.55592202  energy(sigma->0) =    -1145.45905550


--------------------------------------------------------------------------------------------------------




--------------------------------------- Iteration      1(  11)  ---------------------------------------


    POTLOK:  cpu time    0.0083: real time    0.0137
    SETDIJ:  cpu time    0.0068: real time    0.0068
     EDDAV:  cpu time   23.5296: real time   23.5970
       DOS:  cpu time    0.0134: real time    0.0135
    CHARGE:  cpu time    0.3720: real time    0.3729
    MIXING:  cpu time    0.0047: real time    0.0050
    --------------------------------------------
      LOOP:  cpu time   23.9350: real time   24.0089

 eigenvalue-minimisations  : 24496
 total energy-change (2. order) : 0.3595166E+01  (-0.3348393E+01)
 number of electron    1008.0000406 magnetization 
 augmentation part      518.6584221 magnetization 

 Broyden mixing:
  rms(total) = 0.17909E+01    rms(broyden)= 0.17901E+01
  rms(prec ) = 0.25558E+01
  weight for this iteration     100.00

 eigenvalues of (default mixing * dielectric matrix)
  average eigenvalue GAMMA=   0.5029
  1.2558  0.5853  0.5853  0.2513  0.1698  0.1698

 Free energy of the ion-electron system (eV)
  ---------------------------------------------------
  alpha Z        PSCENC =      4905.19536717
  Ewald energy   TEWEN  =    -66023.71025417
  -Hartree energ DENC   =    -25390.98571361
  -exchange      EXHF   =         0.00000000
  -V(xc)+E(xc)   XCENC  =      -358.70983815
  PAW double counting   =     98366.16429337  -100612.66334628
  entropy T*S    EENTRO =         0.18215982
  eigenvalues    EBANDS =      3177.11106827
  atomic energy  EATOM  =     84795.60080690
  Solvation  Ediel_sol  =         0.00000000
  ---------------------------------------------------
  free energy    TOTEN  =     -1141.81545668 eV

  energy without entropy =    -1141.99761650  energy(sigma->0) =    -1141.87617662


--------------------------------------------------------------------------------------------------------




--------------------------------------- Iteration      1(  12)  ---------------------------------------


    POTLOK:  cpu time    0.0092: real time    0.0143
    SETDIJ:  cpu time    0.0069: real time    0.0069
     EDDAV:  cpu time   24.1424: real time   24.2113
       DOS:  cpu time    0.0131: real time    0.0131
    CHARGE:  cpu time    0.3725: real time    0.3734
[...]
   0.433E+02 -.318E+01 -.114E+02   -.424E+02 0.306E+01 0.115E+02   -.199E+00 0.343E-01 0.185E+00   0.139E-02 -.144E-02 0.531E-02
   -.536E+02 -.678E+01 0.230E+01   0.526E+02 0.724E+01 -.190E+01   -.511E-01 0.895E-01 -.540E-01   0.249E-01 -.967E-02 -.123E-01
   0.613E+02 0.162E+01 0.805E+01   -.605E+02 -.206E+01 -.812E+01   -.478E+00 0.589E-02 -.465E-01   0.792E-02 0.445E-02 -.131E-01
   -.701E+02 0.103E+02 0.159E+02   0.699E+02 -.106E+02 -.161E+02   0.188E+00 -.434E+00 -.153E+00   0.422E-02 -.105E-01 0.826E-02
   0.594E+02 0.198E+01 -.629E+01   -.587E+02 -.252E+01 0.666E+01   -.318E+00 -.170E+00 -.412E-01   -.230E-04 -.136E-02 0.723E-02
   -.684E+02 -.567E+01 0.743E+01   0.681E+02 0.606E+01 -.756E+01   0.544E+00 0.958E-01 -.442E-01   0.141E-02 -.581E-02 0.379E-02
   0.512E+02 -.312E+01 -.409E+01   -.503E+02 0.253E+01 0.424E+01   -.180E+00 0.138E+00 0.599E-01   0.208E-02 -.566E-02 0.848E-02
   -.438E+02 0.970E+01 0.522E+01   0.430E+02 -.936E+01 -.517E+01   -.951E-01 -.147E+00 -.664E-01   0.329E-01 0.220E-02 -.138E-01
   0.607E+02 -.114E+01 -.155E+02   -.601E+02 0.918E+00 0.159E+02   -.334E+00 0.230E+00 0.210E+00   0.732E-02 -.492E-03 -.968E-02
   -.443E+02 0.142E+02 0.235E+02   0.433E+02 -.136E+02 -.238E+02   0.162E+00 -.559E-01 -.339E+00   0.159E-01 -.308E-02 0.832E-02
   0.489E+02 -.111E+01 -.209E+01   -.481E+02 0.114E+01 0.206E+01   -.875E-01 0.130E+00 0.680E-02   0.190E-02 0.326E-02 0.215E-03
   -.472E+02 -.130E+02 0.185E+02   0.465E+02 0.137E+02 -.190E+02   -.225E-01 0.205E+00 -.171E+00   0.706E-02 -.468E-02 0.607E-02
   0.567E+02 -.522E+01 0.565E+01   -.562E+02 0.512E+01 -.575E+01   -.167E+00 0.252E+00 -.263E+00   -.532E-02 0.390E-02 0.726E-02
   -.515E+02 0.244E+02 0.176E+02   0.508E+02 -.246E+02 -.179E+02   0.689E-01 -.225E+00 -.131E+00   0.194E-01 0.590E-02 -.711E-02
   0.668E+02 -.142E+02 0.620E+00   -.661E+02 0.142E+02 -.433E+00   -.378E+00 0.296E+00 -.629E-01   -.684E-03 0.130E-02 -.507E-02
   -.586E+02 0.612E+01 0.150E+02   0.582E+02 -.665E+01 -.152E+02   0.467E+00 -.357E+00 -.243E+00   0.155E-01 0.128E-01 0.651E-02
   0.703E+02 -.243E+02 -.620E+01   -.699E+02 0.246E+02 0.628E+01   -.612E+00 0.330E+00 0.124E+00   -.401E-02 -.229E-03 -.308E-02
   -.394E+02 0.259E+02 0.123E+01   0.385E+02 -.259E+02 -.127E+01   0.159E+00 -.208E+00 -.427E-01   0.329E-02 0.433E-02 0.208E-02
   0.551E+02 -.253E+02 -.180E+02   -.545E+02 0.255E+02 0.181E+02   -.363E+00 0.478E+00 0.148E+00   -.129E-01 0.114E-01 -.791E-02
   -.696E+02 0.171E+01 -.238E+02   0.696E+02 -.198E+01 0.241E+02   0.511E+00 -.307E+00 0.440E+00   -.204E-01 0.353E-02 0.378E-03
   0.574E+02 -.510E+01 0.203E+02   -.568E+02 0.521E+01 -.204E+02   -.270E+00 0.280E+00 -.214E+00   -.916E-02 0.352E-02 0.959E-02
   -.711E+02 0.688E+01 0.153E+02   0.708E+02 -.702E+01 -.158E+02   0.413E+00 -.273E+00 -.168E+00   -.513E-02 0.197E-02 0.308E-03
   0.464E+02 -.918E+01 -.242E+01   -.458E+02 0.858E+01 0.245E+01   -.203E+00 -.887E-01 0.121E+00   0.458E-03 0.383E-02 -.154E-02
   -.438E+02 0.787E+01 -.173E+01   0.430E+02 -.733E+01 0.203E+01   0.450E-01 0.275E-01 -.181E-01   -.764E-02 0.102E-02 -.135E-02
   0.571E+02 -.138E+01 -.145E+01   -.563E+02 0.688E+00 0.158E+01   -.110E+00 0.174E-01 0.937E-01   -.892E-02 0.306E-02 -.459E-02
   -.670E+02 0.137E+02 -.227E+02   0.665E+02 -.138E+02 0.232E+02   0.544E+00 -.253E+00 0.177E+00   -.173E-01 0.242E-02 -.167E-02
   0.724E+02 0.237E+00 -.152E+02   -.721E+02 -.898E+00 0.154E+02   -.597E+00 0.605E-01 0.485E-01   -.440E-02 0.551E-03 -.129E-02
   -.532E+02 -.330E+01 0.603E+01   0.524E+02 0.368E+01 -.602E+01   0.212E+00 -.104E+00 -.149E+00   -.201E-02 -.461E-02 0.922E-03
   0.599E+02 -.685E+01 0.128E+02   -.594E+02 0.681E+01 -.129E+02   -.527E+00 0.304E+00 -.293E-01   -.117E-02 -.177E-02 0.583E-02
   -.639E+02 0.711E+01 0.552E+01   0.635E+02 -.721E+01 -.599E+01   0.293E+00 -.441E+00 -.112E+00   -.553E-02 0.598E-02 0.144E-02
   0.636E+02 -.920E+01 0.162E+02   -.632E+02 0.916E+01 -.163E+02   -.623E+00 0.222E+00 -.845E-01   -.861E-02 -.827E-02 0.414E-03
   -.545E+02 0.965E+01 -.996E+01   0.542E+02 -.911E+01 0.103E+02   0.466E+00 -.970E-01 0.115E+00   -.129E-01 0.426E-02 -.419E-02
   0.595E+02 -.669E+01 -.128E+02   -.594E+02 0.719E+01 0.130E+02   -.289E+00 0.380E+00 0.140E+00   -.595E-02 -.979E-03 -.111E-02
   -.628E+02 0.118E+02 -.119E+02   0.623E+02 -.118E+02 0.120E+02   0.465E+00 -.283E+00 0.214E+00   -.148E-02 0.258E-02 -.401E-03
   0.538E+02 0.106E+02 -.102E+02   -.531E+02 -.111E+02 0.103E+02   -.276E+00 -.194E+00 0.523E-01   -.136E-02 -.304E-02 0.720E-04
   -.744E+02 0.910E+00 -.141E+01   0.740E+02 -.704E+00 0.111E+01   0.484E+00 -.802E-01 -.487E-01   -.273E-02 -.574E-03 0.513E-02
   0.428E+02 0.687E+01 -.578E+00   -.422E+02 -.747E+01 0.612E+00   -.415E-01 -.288E-01 -.247E-02   -.102E-01 -.575E-02 -.286E-02
   -.433E+02 -.671E-01 0.476E+01   0.427E+02 0.651E+00 -.458E+01   0.812E-02 0.139E+00 -.442E-01   -.136E-01 -.917E-02 -.220E-02
   0.560E+02 -.302E+02 0.751E+01   -.559E+02 0.301E+02 -.771E+01   -.520E+00 0.403E+00 -.452E-01   -.346E-02 -.295E-02 0.984E-02
   -.600E+02 0.229E+02 0.252E+01   0.596E+02 -.227E+02 -.270E+01   0.258E+00 -.301E+00 -.797E-01   -.502E-02 0.408E-03 0.191E-02
   0.441E+02 -.575E+01 -.742E+01   -.433E+02 0.540E+01 0.737E+01   -.129E+00 0.726E-01 0.308E-01   0.154E-02 0.119E-02 -.693E-02
   -.501E+02 0.134E+02 -.144E+02   0.493E+02 -.131E+02 0.144E+02   0.151E+00 -.210E+00 0.223E+00   -.703E-02 -.676E-02 0.999E-03
 -----------------------------------------------------------------------------------------------
   -.311E+01 -.541E-01 0.389E+01   -.256E-12 -.735E-12 0.426E-13   0.314E+01 0.504E-01 -.387E+01   0.231E-02 -.272E-02 -.134E-01
 
 
 POSITION                                       TOTAL-FORCE (eV/Angst)
 -----------------------------------------------------------------------------------
      3.09136     -0.27387      0.92702         0.005064     -0.358046      0.599484
     10.66155      9.94768      2.99947         0.375577      0.171726      0.457479
      3.04885     -0.24231      5.04048         0.243587     -0.025263      0.353761
     10.73518     10.00179      7.20074        -0.016470      0.005591     -0.233079
      3.18323     -0.23901      9.16001        -0.397695     -0.114741      0.234469
     10.60890      9.95229     11.37263         0.635706      0.157494     -0.484578
      3.14526      2.64699      0.93066        -0.249371     -0.312853      0.762240
     10.75112      1.42210      3.13063        -0.084628     -0.300881     -0.360160
      3.06551      2.50607      5.03887         0.357286      0.097920      0.142845
     10.73686      1.26665      7.14211        -0.207129      0.187643      0.413235
      3.02842      2.56288      9.28188         0.124151      0.198652      0.046576
     10.68392      1.23432     11.30418         0.104253      0.181314     -0.073010
      3.03581      5.53955      1.00654         0.204357     -0.295647      0.208939
     10.63416      4.30783      3.05055         0.266594     -0.336144     -0.143238
      3.06194      5.55725      5.12062        -0.048580     -0.153742     -0.063678
     10.79406      4.25502      7.21334        -0.204072     -0.324282     -0.037082
      3.18863      5.49280      9.14357        -0.593873     -0.039198      0.526549
     10.72452      4.18766     11.30241        -0.148993      0.063949      0.087257
      3.14613      8.47553      0.96147        -0.250743     -0.285782      0.605410
     10.62852      7.20685      3.12036         0.432297     -0.326336     -0.374773
      3.01193      8.28131      5.04066         0.340791      0.355153      0.764362
     10.65033      7.19233      7.19677         0.348162     -0.263284      0.009083
      3.12016      8.27980      9.30313        -0.337741      0.235928     -0.118394
     10.64768      7.18175     11.27457         0.408148     -0.073659     -0.020041
      7.61988     -1.02697      0.97214         0.120807      0.319922     -0.029470
      1.53766     11.29134      2.98351        -0.089627      0.067480      0.199121
      7.65006     -0.93219      5.22900         0.181594      0.157643     -0.488538
      1.56442     11.22737      7.18775        -0.096463      0.116319      0.099030
      7.73224     -0.93470      9.20647        -0.221012      0.290531      0.332812
      1.59278     11.29535     11.27303        -0.610210     -0.443313     -0.194572
      7.73691      1.89157      1.07755        -0.626714      0.363956     -0.345336
      1.40837      2.53746      3.14195         0.393488      0.103952     -0.511792
      7.75798      2.00397      5.21656        -0.388064      0.072707     -0.268568
      1.58145      2.48819      7.13587        -0.349176      0.216619      0.259761
      7.68897      1.94673      9.26386         0.261339      0.239993     -0.080985
      1.50497      2.67063     11.38075         0.005531     -0.371728     -0.348390
      7.61527      4.93713      1.09242         0.120366      0.119082     -0.410633
      1.39806      5.41864      3.04741         0.656800      0.133308      0.220233
      7.77992      4.92861      5.12698        -0.472448     -0.034647      0.070954
      1.50433      5.54312      7.14614        -0.059337     -0.089705      0.242142
      7.67402      4.92611      9.25857         0.034377     -0.105804     -0.076070
      1.43186      5.54098     11.31941         0.576748     -0.188780     -0.084540
      7.68629      7.84029      1.04794        -0.372643     -0.213732     -0.213848
      1.56083      8.39634      3.10662        -0.403314      0.005838     -0.491618
      7.78387      7.71007      5.16916        -0.412917      0.151974     -0.264910
      1.48523      8.35782      7.17116        -0.018153      0.122687      0.130460
      7.65068      7.73087      9.21167         0.117119     -0.113002      0.433801
      1.55459      8.45740     11.37777        -0.487001     -0.336223     -0.362148
     12.32848     -1.53237      1.03080        -0.142341     -0.256716     -0.039597
      6.15225     10.66263      3.07414        -0.377891      0.133787      0.079783
     12.37636     -1.50401      5.17268        -0.559334     -0.323269     -0.191378
      6.11197     10.58106      7.18238        -0.305390      0.308230      0.144354
     12.26541     -1.65682      9.18159         0.008535      0.224507      0.452527
      6.09799     10.69458     11.23864         0.026085     -0.136953      0.199156
     12.31716      1.31443      0.95753        -0.435937     -0.028720      0.409434
      6.12243      1.96366      3.11183         0.008910      0.032040     -0.001636
     12.27886      1.39358      5.20394         0.143931     -0.254173     -0.420288
      6.10576      2.02818      7.27896         0.103651     -0.117805     -0.468574
     12.37391      1.22591      9.29705        -0.502524      0.616570     -0.448111
      6.14442      1.90680     11.24841        -0.303464      0.268043      0.403055
     12.27403      4.14560      1.10726         0.026998      0.302613     -0.453339
      6.10639      4.94781      3.10832        -0.015527     -0.271041     -0.103766
     12.24606      4.26613      5.04108         0.363537      0.057695      0.320160
      6.07138      4.92533      7.22754         0.368514     -0.014813     -0.351265
     12.26353      4.16943      9.29303         0.137656      0.098298     -0.173063
      6.08947      4.76425     11.29870         0.056804      0.353374      0.176812
     12.29019      7.16497      1.02923        -0.147489      0.152425     -0.136705
      6.10626      7.84275      3.14179         0.233789     -0.317980     -0.265038
     12.23028      7.10072      5.05680         0.458381     -0.089617      0.365729
      6.12483      7.81145      7.22836        -0.168367     -0.309104     -0.413085
     12.24267      7.03068      9.14667         0.099405      0.658499      0.719795
      6.01142      7.74258     11.21967         0.616827      0.133897      0.427268
      0.93334      1.04287      1.00635         0.340290      0.494274     -0.090269
     12.82071      8.61048      3.11804        -0.644995      0.644546     -0.091068
      0.92417      1.01338      5.19515         0.535549      0.361786     -0.323034
     12.90660      8.58932      7.22746        -0.555843      0.413269     -0.279888
      0.91576      1.05798      9.33458         0.549307      0.046109     -0.558454
     12.81958      8.66501     11.26010        -0.332064     -0.089238      0.077933
      0.95218      4.02961      0.94765         0.623233     -0.442580      0.777398
     12.80253      0.01436      3.03972        -0.323979     -0.381890      0.280772
      0.99441      3.88243      5.14982         0.311245      0.484593     -0.025538
     12.74230     -0.04950      7.22895         0.265404     -0.287442     -0.152761
      1.02885      3.97473      9.33192         0.092455     -0.147347     -0.487543
     12.83026      0.01332     11.22449        -0.242650     -0.898769      0.623901
      1.04625      6.91496      1.10366         0.094522     -0.030909     -0.470173
     12.83769      2.88083      3.05078        -0.252930     -0.170501      0.252529
      0.91904      6.95965      5.12498         0.365226     -0.866953      0.110293
     12.82863      2.81227      7.13641        -0.160338      0.448985      0.308959
      1.07328      6.84121      9.32471        -0.205246      0.272287     -0.361718
     12.83762      2.73380     11.38289        -0.634065      0.865639     -0.567282
      0.90929      9.81885      1.07778         0.623176     -0.412028     -0.267271
     12.89756      5.77094      3.00585        -0.913657      0.074566      0.096051
      1.00666      9.83616      5.05983         0.218992     -0.453866      0.215008
     12.76879      5.74579      7.28292         0.058807     -0.388313     -0.386545
      1.06880      9.81718      9.25425         0.044877     -0.525009      0.098041
     12.74024      5.64062     11.22127         0.077106      0.466043      0.401493
      5.51350      0.53668      1.04062         0.855545     -0.786956     -0.378519
      3.54758      9.83817      3.12977         0.221511      0.659568     -0.156208
      5.62310      0.50902      5.06636         0.245606     -0.284377      0.447566
      3.51064      9.80171      7.18627         0.339005      0.841366     -0.179498
      5.60930      0.49229      9.27685         0.296709     -0.251782     -0.290745
      3.55991      9.80098     11.27102         0.367387      0.699381     -0.158373
      5.53779      3.36911      1.03193         0.714524     -0.086341      0.330948
      3.69188      1.14637      2.99419        -1.055822      0.532291      0.331542
      5.62246      3.43103      5.22504         0.260456     -0.436638     -0.126961
      3.61825      1.27683      7.21731        -0.006610     -0.731501     -0.250605
      5.57808      3.43388      9.17779         0.428478     -0.704925      0.338992
      3.53219      1.12072     11.29813         0.207665      0.476080     -0.172448
      5.52531      6.30112      0.99595         0.672107     -0.451707      0.219563
      3.69494      4.10811      3.15677        -0.892012      0.194634     -0.026313
      5.59716      6.25904      5.03811         0.217894      0.004405      0.600970
      3.62562      4.07844      7.25047        -0.782485      0.512160     -0.653254
      5.50989      6.22326      9.27881         0.672729      0.164580     -0.026292
      3.69064      3.99179     11.39235        -0.785516      0.941638     -0.698178
      5.55622      9.15459      1.07700         0.307428      0.163293     -0.355762
      3.67858      7.04072      3.12061        -0.597534     -0.361245     -0.465041
      5.57940      9.10070      5.15938         0.317198      0.303629      0.118954
      3.59297      7.08447      7.22456         0.105675     -0.881353     -0.507402
      5.63165      9.09126      9.19347        -0.246803      0.595371      0.199639
      3.67790      6.99525     11.35743        -0.830405     -0.144314     -0.086833
     10.17066     -0.27367      1.00258         0.258374      0.695271      0.250512
      8.12586      9.35374      3.01732         0.513159     -0.569364      0.717586
     10.17116     -0.24230      5.15350         0.289349      0.394260     -0.257401
      8.17239      9.34043      7.27093         0.122987     -0.418785     -0.624466
     10.15173     -0.11698      9.22617         0.402782     -0.683565      0.146880
      8.23327      9.20391     11.21739        -0.789382      0.566861      0.274858
     10.13103      2.76099      0.97141         0.671932     -0.673670      0.215019
      8.21381      0.62023      2.98547         0.030555     -0.351123      0.707222
     10.26740      2.78151      5.05475        -0.304468     -0.600237      0.293161
      8.24020      0.60388      7.21105        -0.576582      0.262467     -0.140105
     10.22858      2.67975      9.30232        -0.044543      0.268251     -0.134196
      8.19917      0.61972     11.39509        -0.143758     -0.535256     -0.574518
     10.30090      5.61790      1.03229        -0.168641      0.172662     -0.258120
      8.13702      3.43231      2.98624         0.104322      0.450730      0.437699
     10.24031      5.54642      5.12338        -0.194935      0.881355      0.290812
      8.22625      3.55912      7.12978        -0.047687     -0.232056      0.379486
     10.14451      5.66841      9.20247         0.460395     -0.647084      0.142890
      8.11546      3.47986     11.36577         0.078779      0.124589     -0.350403
     10.10859      8.54857      1.02000         0.523422     -0.635768      0.028497
      8.29945      6.30346      3.03441        -0.578499      0.713242      0.133156
     10.25536      8.47518      5.20417        -0.384972      0.328796     -0.235628
      8.19569      6.42398      7.21430        -0.138986     -0.071830     -0.259340
     10.10768      8.55766      9.22197         0.652895     -0.272351     -0.022036
      8.25932      6.34965     11.28702        -0.566175      0.137718      0.249082
 -----------------------------------------------------------------------------------
    total drift:                                0.032394     -0.006338      0.005345


--------------------------------------------------------------------------------------------------------



  FREE ENERGIE OF THE ION-ELECTRON SYSTEM (eV)
  ---------------------------------------------------
  free  energy   TOTEN  =     -1137.87160617 eV

  energy  without entropy=    -1138.06045371  energy(sigma->0) =    -1137.93455535
 


--------------------------------------------------------------------------------------------------------


    POTLOK:  cpu time    0.0147: real time    0.0147


--------------------------------------------------------------------------------------------------------


 writing wavefunctions
     LOOP+:  cpu time  742.2755: real time  766.5037
    4ORBIT:  cpu time    0.0000: real time    0.0000

 total amount of memory used by VASP MPI-rank0   174126. kBytes
=======================================================================

   base      :      30000. kBytes
   nonl-proj :       5575. kBytes
   fftplans  :       3093. kBytes
   grid      :       4956. kBytes
   one-center:         77. kBytes
   wavefun   :     130425. kBytes
 
  
  
 General timing and accounting informations for this job:
 ========================================================
  
                  Total CPU time used (sec):      761.263
                            User time (sec):      757.345
                          System time (sec):        3.919
                         Elapsed time (sec):      789.434
  
                   Maximum memory used (kb):      225996.
                   Average memory used (kb):           0.
  
                          Minor page faults:        70760
                          Major page faults:            0
                 Voluntary context switches:         9280
