
     Program PWSCF v.6.2 starts on  7Oct2018 at 19:29:13 

     This program is part of the open-source Quantum ESPRESSO suite
     for quantum simulation of materials; please cite
         "P. Giannozzi et al., J. Phys.:Condens. Matter 21 395502 (2009);
         "P. Giannozzi et al., J. Phys.:Condens. Matter 29 465901 (2017);
          URL http://www.quantum-espresso.org", 
     in publications or presentations arising from this work. More details at
     http://www.quantum-espresso.org/quote

     Parallel version (MPI), running on    32 processors

     MPI processes distributed on     1 nodes
     R & G space division:  proc/nbgrp/npool/nimage =      32
     Waiting for input...
     Reading input from standard input

     Current dimensions of program PWSCF are:
     Max number of different atomic species (ntypx) = 10
     Max number of k-points (npk) =  40000
     Max angular momentum in pseudopotentials (lmaxx) =  3
               file C.pz-rrkjus.UPF: wavefunction(s)  2S renormalized

     Subspace diagonalization in iterative solution of the eigenvalue problem:
     a serial algorithm will be used


     Parallelization info
     --------------------
     sticks:   dense  smooth     PW     G-vecs:    dense   smooth      PW
     Min          13      13      4                  181      181      35
     Max          14      14      5                  184      184      37
     Sum         433     433    151                 5817     5817    1139



     bravais-lattice index     =            0
     lattice parameter (alat)  =       4.7036  a.u.
     unit-cell volume          =      73.5808 (a.u.)^3
     number of atoms/cell      =            2
     number of atomic types    =            1
     number of electrons       =         8.00
     number of Kohn-Sham states=            4
     kinetic-energy cutoff     =      70.0000  Ry
     charge density cutoff     =     280.0000  Ry
     convergence threshold     =      1.0E-10
     mixing beta               =       0.7000
     number of iterations used =            8  plain     mixing
     Exchange-correlation      = SLA PZ NOGX NOGC ( 1  1  0  0 0 0)
     nstep                     =           50


     celldm(1)=   4.703558  celldm(2)=   0.000000  celldm(3)=   0.000000
     celldm(4)=   0.000000  celldm(5)=   0.000000  celldm(6)=   0.000000

     crystal axes: (cart. coord. in units of alat)
               a(1) = (   0.000000   0.707107   0.707107 )  
               a(2) = (   0.707107   0.000000   0.707107 )  
               a(3) = (   0.707107   0.707107   0.000000 )  

     reciprocal axes: (cart. coord. in units 2 pi/alat)
               b(1) = ( -0.707107  0.707107  0.707107 )  
               b(2) = (  0.707107 -0.707107  0.707107 )  
               b(3) = (  0.707107  0.707107 -0.707107 )  


     PseudoPot. # 1 for C  read from file:
     /n/holylfs/LABS/kozinsky_lab/Software/qe-6.2.1/pseudo/C.pz-rrkjus.UPF
     MD5 check sum: b6daa4d29350031528385b7e2af80775
     Pseudo is Ultrasoft, Zval =  4.0
     Generated by new atomic code, or converted to UPF format
     Using radial grid of 1425 points,  4 beta functions with: 
                l(1) =   0
                l(2) =   0
                l(3) =   1
                l(4) =   1
     Q(r) pseudized with 0 coefficients 


     atomic species   valence    mass     pseudopotential
        C              4.00    12.01100     C ( 1.00)

     24 Sym. Ops. (no inversion) found
          (note: 24 additional sym.ops. were found but ignored
           their fractional translations are incommensurate with FFT grid)


   Cartesian axes

     site n.     atom                  positions (alat units)
         1           C   tau(   1) = (   0.0000000   0.0000000   0.0000000  )
         2           C   tau(   2) = (   0.3535534   0.3535534   0.3535534  )

     number of k points=   256

     Number of k-points >= 100: set verbosity='high' to print them.

     Dense  grid:     5817 G-vectors     FFT dimensions: (  25,  25,  25)

     Estimated max dynamical RAM per process >       1.18 MB

     Estimated total dynamical RAM >      37.69 MB

     Initial potential from superposition of free atoms

     starting charge    7.99992, renormalised to    8.00000
     Starting wfc are    8 randomized atomic wfcs

     total cpu time spent up to now is        0.6 secs

     Self-consistent Calculation

     iteration #  1     ecut=    70.00 Ry     beta= 0.70
     Davidson diagonalization with overlap
     ethr =  1.00E-02,  avg # of iterations =  2.9

     total cpu time spent up to now is        1.1 secs

     total energy              =     -22.84070940 Ry
     Harris-Foulkes estimate   =     -22.91234742 Ry
     estimated scf accuracy    <       0.13209266 Ry

     iteration #  2     ecut=    70.00 Ry     beta= 0.70
     Davidson diagonalization with overlap
     ethr =  1.65E-03,  avg # of iterations =  1.9

     total cpu time spent up to now is        1.4 secs

     total energy              =     -22.85467268 Ry
     Harris-Foulkes estimate   =     -22.85637641 Ry
     estimated scf accuracy    <       0.00430502 Ry

     iteration #  3     ecut=    70.00 Ry     beta= 0.70
     Davidson diagonalization with overlap
     ethr =  5.38E-05,  avg # of iterations =  3.1

     total cpu time spent up to now is        1.9 secs

     total energy              =     -22.85846069 Ry
     Harris-Foulkes estimate   =     -22.85869479 Ry
     estimated scf accuracy    <       0.00041776 Ry

     iteration #  4     ecut=    70.00 Ry     beta= 0.70
     Davidson diagonalization with overlap
     ethr =  5.22E-06,  avg # of iterations =  2.8

     total cpu time spent up to now is        2.4 secs

     total energy              =     -22.85854818 Ry
     Harris-Foulkes estimate   =     -22.85855791 Ry
     estimated scf accuracy    <       0.00002294 Ry

     iteration #  5     ecut=    70.00 Ry     beta= 0.70
     Davidson diagonalization with overlap
     ethr =  2.87E-07,  avg # of iterations =  2.4

     total cpu time spent up to now is        2.7 secs

     total energy              =     -22.85855271 Ry
     Harris-Foulkes estimate   =     -22.85855271 Ry
     estimated scf accuracy    <       0.00000002 Ry

     iteration #  6     ecut=    70.00 Ry     beta= 0.70
     Davidson diagonalization with overlap
     ethr =  2.60E-10,  avg # of iterations =  4.9

     total cpu time spent up to now is        3.5 secs

     total energy              =     -22.85855323 Ry
     Harris-Foulkes estimate   =     -22.85855325 Ry
     estimated scf accuracy    <       0.00000004 Ry

     iteration #  7     ecut=    70.00 Ry     beta= 0.70
     Davidson diagonalization with overlap
     ethr =  2.60E-10,  avg # of iterations =  2.4

     total cpu time spent up to now is        3.9 secs

     total energy              =     -22.85855323 Ry
     Harris-Foulkes estimate   =     -22.85855323 Ry
     estimated scf accuracy    <          5.8E-10 Ry

     iteration #  8     ecut=    70.00 Ry     beta= 0.70
     Davidson diagonalization with overlap
     ethr =  7.26E-12,  avg # of iterations =  3.2

     total cpu time spent up to now is        4.4 secs

     End of self-consistent calculation

     Number of k-points >= 100: set verbosity='high' to print the bands.

     highest occupied level (ev):    13.7756

!    total energy              =     -22.85855323 Ry
     Harris-Foulkes estimate   =     -22.85855323 Ry
     estimated scf accuracy    <          3.2E-11 Ry

     The total energy is the sum of the following terms:

     one-electron contribution =       8.31654136 Ry
     hartree contribution      =       1.87588409 Ry
     xc contribution           =      -7.13669911 Ry
     ewald contribution        =     -25.91427957 Ry

     convergence has been achieved in   8 iterations

     Forces acting on atoms (cartesian axes, Ry/au):

     atom    1 type  1   force =     0.00000000   -0.00000000   -0.00000000
     atom    2 type  1   force =    -0.00000000    0.00000000    0.00000000

     Total force =     0.000000     Total SCF correction =     0.000000


     Computing stress (Cartesian axis) and pressure

          total   stress  (Ry/bohr**3)                   (kbar)     P=   27.04
   0.00018382  -0.00000000   0.00000000         27.04     -0.00      0.00
  -0.00000000   0.00018382   0.00000000         -0.00     27.04      0.00
   0.00000000   0.00000000   0.00018382          0.00      0.00     27.04


     BFGS Geometry Optimization

     number of scf cycles    =   1
     number of bfgs steps    =   0

     enthalpy new            =     -22.8585532328 Ry

     new trust radius        =       0.0078839583 bohr
     new conv_thr            =            1.0E-10 Ry

     new unit-cell volume =     74.59991 a.u.^3 (    11.05457 Ang^3 )
     density =      3.60842 g/cm^3

CELL_PARAMETERS (angstrom)
   0.000000000   1.768088066   1.768088066
   1.768088066  -0.000000000   1.768088066
   1.768088066   1.768088066  -0.000000000

ATOMIC_POSITIONS (angstrom)
C        0.000000000  -0.000000000  -0.000000000
C        0.884044033   0.884044033   0.884044033



     Writing output data file pwscf.save
     NEW-OLD atomic charge density approx. for the potential
     extrapolated charge    8.10928, renormalised to    8.00000

     total cpu time spent up to now is        4.7 secs

     Self-consistent Calculation

     iteration #  1     ecut=    70.00 Ry     beta= 0.70
     Davidson diagonalization with overlap
     ethr =  1.00E-06,  avg # of iterations =  3.3

     total cpu time spent up to now is        5.3 secs

     total energy              =     -22.85834885 Ry
     Harris-Foulkes estimate   =     -22.93401586 Ry
     estimated scf accuracy    <       0.00007839 Ry

     iteration #  2     ecut=    70.00 Ry     beta= 0.70
     Davidson diagonalization with overlap
     ethr =  9.80E-07,  avg # of iterations =  3.3

     total cpu time spent up to now is        5.8 secs

     total energy              =     -22.85853486 Ry
     Harris-Foulkes estimate   =     -22.85855819 Ry
     estimated scf accuracy    <       0.00006178 Ry

     iteration #  3     ecut=    70.00 Ry     beta= 0.70
     Davidson diagonalization with overlap
     ethr =  7.72E-07,  avg # of iterations =  1.0

     total cpu time spent up to now is        6.1 secs

     total energy              =     -22.85852383 Ry
     Harris-Foulkes estimate   =     -22.85853625 Ry
     estimated scf accuracy    <       0.00001869 Ry

     iteration #  4     ecut=    70.00 Ry     beta= 0.70
     Davidson diagonalization with overlap
     ethr =  2.34E-07,  avg # of iterations =  2.1

     total cpu time spent up to now is        6.5 secs

     total energy              =     -22.85852870 Ry
     Harris-Foulkes estimate   =     -22.85852952 Ry
     estimated scf accuracy    <       0.00000199 Ry

     iteration #  5     ecut=    70.00 Ry     beta= 0.70
     Davidson diagonalization with overlap
     ethr =  2.49E-08,  avg # of iterations =  1.1

     total cpu time spent up to now is        6.8 secs

     total energy              =     -22.85852864 Ry
     Harris-Foulkes estimate   =     -22.85852879 Ry
     estimated scf accuracy    <       0.00000043 Ry

     iteration #  6     ecut=    70.00 Ry     beta= 0.70
     Davidson diagonalization with overlap
     ethr =  5.35E-09,  avg # of iterations =  1.7

     total cpu time spent up to now is        7.1 secs

     total energy              =     -22.85852860 Ry
     Harris-Foulkes estimate   =     -22.85852868 Ry
     estimated scf accuracy    <       0.00000013 Ry

     iteration #  7     ecut=    70.00 Ry     beta= 0.70
     Davidson diagonalization with overlap
     ethr =  1.63E-09,  avg # of iterations =  3.1

     total cpu time spent up to now is        7.6 secs

     total energy              =     -22.85852865 Ry
     Harris-Foulkes estimate   =     -22.85852867 Ry
     estimated scf accuracy    <       0.00000002 Ry

     iteration #  8     ecut=    70.00 Ry     beta= 0.70
     Davidson diagonalization with overlap
     ethr =  3.07E-10,  avg # of iterations =  2.0

     total cpu time spent up to now is        7.9 secs

     total energy              =     -22.85852865 Ry
     Harris-Foulkes estimate   =     -22.85852865 Ry
     estimated scf accuracy    <          4.2E-10 Ry

     iteration #  9     ecut=    70.00 Ry     beta= 0.70
     Davidson diagonalization with overlap
     ethr =  5.28E-12,  avg # of iterations =  3.1

     total cpu time spent up to now is        8.4 secs

     total energy              =     -22.85852866 Ry
     Harris-Foulkes estimate   =     -22.85852865 Ry
     estimated scf accuracy    <          6.4E-10 Ry

     iteration # 10     ecut=    70.00 Ry     beta= 0.70
     Davidson diagonalization with overlap
     ethr =  5.28E-12,  avg # of iterations =  3.0

     total cpu time spent up to now is        8.9 secs

     total energy              =     -22.85852865 Ry
     Harris-Foulkes estimate   =     -22.85852866 Ry
     estimated scf accuracy    <          1.1E-09 Ry

     iteration # 11     ecut=    70.00 Ry     beta= 0.70
     Davidson diagonalization with overlap
     ethr =  5.28E-12,  avg # of iterations =  1.0

     total cpu time spent up to now is        9.2 secs

     total energy              =     -22.85852865 Ry
     Harris-Foulkes estimate   =     -22.85852865 Ry
     estimated scf accuracy    <          4.5E-10 Ry

     iteration # 12     ecut=    70.00 Ry     beta= 0.70
     Davidson diagonalization with overlap
     ethr =  5.28E-12,  avg # of iterations =  2.0

     total cpu time spent up to now is        9.6 secs

     End of self-consistent calculation

     Number of k-points >= 100: set verbosity='high' to print the bands.

     highest occupied level (ev):    13.5238

!    total energy              =     -22.85852865 Ry
     Harris-Foulkes estimate   =     -22.85852865 Ry
     estimated scf accuracy    <          5.7E-11 Ry

     The total energy is the sum of the following terms:

     one-electron contribution =       8.16162852 Ry
     hartree contribution      =       1.88917945 Ry
     xc contribution           =      -7.11360116 Ry
     ewald contribution        =     -25.79573547 Ry

     convergence has been achieved in  12 iterations

     Forces acting on atoms (cartesian axes, Ry/au):

     atom    1 type  1   force =     0.00000000    0.00000000    0.00000000
     atom    2 type  1   force =     0.00000000    0.00000000    0.00000000

     Total force =     0.000000     Total SCF correction =     0.000000


     Computing stress (Cartesian axis) and pressure

          total   stress  (Ry/bohr**3)                   (kbar)     P=  -36.44
  -0.00024775  -0.00000000   0.00000000        -36.44     -0.00      0.00
  -0.00000000  -0.00024775  -0.00000000         -0.00    -36.44     -0.00
   0.00000000  -0.00000000  -0.00024775          0.00     -0.00    -36.44


     number of scf cycles    =   2
     number of bfgs steps    =   1

     enthalpy old            =     -22.8585532328 Ry
     enthalpy new            =     -22.8585286547 Ry

     CASE: enthalpy_new > enthalpy_old

     new trust radius        =       0.0034909007 bohr
     new conv_thr            =            1.0E-10 Ry

     new unit-cell volume =     74.02987 a.u.^3 (    10.97009 Ang^3 )
     density =      3.63620 g/cm^3

CELL_PARAMETERS (angstrom)
   0.000000000   1.763573076   1.763573076
   1.763573076  -0.000000000   1.763573076
   1.763573076   1.763573076  -0.000000000

ATOMIC_POSITIONS (angstrom)
C        0.000000000  -0.000000000  -0.000000000
C        0.881786538   0.881786538   0.881786538



     Writing output data file pwscf.save
     NEW-OLD atomic charge density approx. for the potential
     extrapolated charge    7.93840, renormalised to    8.00000

     total cpu time spent up to now is        9.9 secs

     Self-consistent Calculation

     iteration #  1     ecut=    70.00 Ry     beta= 0.70
     Davidson diagonalization with overlap
     ethr =  1.00E-06,  avg # of iterations =  3.0

     total cpu time spent up to now is       10.4 secs

     total energy              =     -22.85853979 Ry
     Harris-Foulkes estimate   =     -22.81585195 Ry
     estimated scf accuracy    <       0.00002606 Ry

     iteration #  2     ecut=    70.00 Ry     beta= 0.70
     Davidson diagonalization with overlap
     ethr =  3.26E-07,  avg # of iterations =  3.2

     total cpu time spent up to now is       10.9 secs

     total energy              =     -22.85860058 Ry
     Harris-Foulkes estimate   =     -22.85860617 Ry
     estimated scf accuracy    <       0.00001920 Ry

     iteration #  3     ecut=    70.00 Ry     beta= 0.70
     Davidson diagonalization with overlap
     ethr =  2.40E-07,  avg # of iterations =  1.0

     total cpu time spent up to now is       11.2 secs

     total energy              =     -22.85859753 Ry
     Harris-Foulkes estimate   =     -22.85860102 Ry
     estimated scf accuracy    <       0.00000566 Ry

     iteration #  4     ecut=    70.00 Ry     beta= 0.70
     Davidson diagonalization with overlap
     ethr =  7.08E-08,  avg # of iterations =  2.1

     total cpu time spent up to now is       11.6 secs

     total energy              =     -22.85859902 Ry
     Harris-Foulkes estimate   =     -22.85859933 Ry
     estimated scf accuracy    <       0.00000071 Ry

     iteration #  5     ecut=    70.00 Ry     beta= 0.70
     Davidson diagonalization with overlap
     ethr =  8.88E-09,  avg # of iterations =  1.0

     total cpu time spent up to now is       11.9 secs

     total energy              =     -22.85859907 Ry
     Harris-Foulkes estimate   =     -22.85859906 Ry
     estimated scf accuracy    <       0.00000014 Ry

     iteration #  6     ecut=    70.00 Ry     beta= 0.70
     Davidson diagonalization with overlap
     ethr =  1.74E-09,  avg # of iterations =  1.2

     total cpu time spent up to now is       12.1 secs

     total energy              =     -22.85859902 Ry
     Harris-Foulkes estimate   =     -22.85859908 Ry
     estimated scf accuracy    <       0.00000016 Ry

     iteration #  7     ecut=    70.00 Ry     beta= 0.70
     Davidson diagonalization with overlap
     ethr =  1.74E-09,  avg # of iterations =  3.0

     total cpu time spent up to now is       12.6 secs

     total energy              =     -22.85859900 Ry
     Harris-Foulkes estimate   =     -22.85859911 Ry
     estimated scf accuracy    <       0.00000036 Ry

     iteration #  8     ecut=    70.00 Ry     beta= 0.70
     Davidson diagonalization with overlap
     ethr =  1.74E-09,  avg # of iterations =  1.5

     total cpu time spent up to now is       12.9 secs

     total energy              =     -22.85859902 Ry
     Harris-Foulkes estimate   =     -22.85859901 Ry
     estimated scf accuracy    <       0.00000002 Ry

     iteration #  9     ecut=    70.00 Ry     beta= 0.70
     Davidson diagonalization with overlap
     ethr =  2.34E-10,  avg # of iterations =  2.5

     total cpu time spent up to now is       13.3 secs

     total energy              =     -22.85859902 Ry
     Harris-Foulkes estimate   =     -22.85859902 Ry
     estimated scf accuracy    <       0.00000002 Ry

     iteration # 10     ecut=    70.00 Ry     beta= 0.70
     Davidson diagonalization with overlap
     ethr =  2.33E-10,  avg # of iterations =  1.0

     total cpu time spent up to now is       13.6 secs

     total energy              =     -22.85859902 Ry
     Harris-Foulkes estimate   =     -22.85859902 Ry
     estimated scf accuracy    <       0.00000002 Ry

     iteration # 11     ecut=    70.00 Ry     beta= 0.70
     Davidson diagonalization with overlap
     ethr =  2.02E-10,  avg # of iterations =  1.0

     total cpu time spent up to now is       13.9 secs

     total energy              =     -22.85859904 Ry
     Harris-Foulkes estimate   =     -22.85859902 Ry
     estimated scf accuracy    <       0.00000001 Ry

     iteration # 12     ecut=    70.00 Ry     beta= 0.70
     Davidson diagonalization with overlap
     ethr =  1.25E-10,  avg # of iterations =  2.9

     total cpu time spent up to now is       14.4 secs

     total energy              =     -22.85859901 Ry
     Harris-Foulkes estimate   =     -22.85859904 Ry
     estimated scf accuracy    <       0.00000008 Ry

     iteration # 13     ecut=    70.00 Ry     beta= 0.70
     Davidson diagonalization with overlap
     ethr =  1.25E-10,  avg # of iterations =  3.0

     total cpu time spent up to now is       14.8 secs

     total energy              =     -22.85859902 Ry
     Harris-Foulkes estimate   =     -22.85859902 Ry
     estimated scf accuracy    <          4.8E-09 Ry

     iteration # 14     ecut=    70.00 Ry     beta= 0.70
     Davidson diagonalization with overlap
     ethr =  5.95E-11,  avg # of iterations =  1.8

     total cpu time spent up to now is       15.2 secs

     total energy              =     -22.85859902 Ry
     Harris-Foulkes estimate   =     -22.85859902 Ry
     estimated scf accuracy    <          8.6E-10 Ry

     iteration # 15     ecut=    70.00 Ry     beta= 0.70
     Davidson diagonalization with overlap
     ethr =  1.07E-11,  avg # of iterations =  3.1

     total cpu time spent up to now is       15.7 secs

     total energy              =     -22.85859902 Ry
     Harris-Foulkes estimate   =     -22.85859902 Ry
     estimated scf accuracy    <          5.8E-09 Ry

     iteration # 16     ecut=    70.00 Ry     beta= 0.70
     Davidson diagonalization with overlap
     ethr =  1.07E-11,  avg # of iterations =  3.0

     total cpu time spent up to now is       16.1 secs

     total energy              =     -22.85859902 Ry
     Harris-Foulkes estimate   =     -22.85859902 Ry
     estimated scf accuracy    <          5.4E-10 Ry

     iteration # 17     ecut=    70.00 Ry     beta= 0.70
     Davidson diagonalization with overlap
     ethr =  6.74E-12,  avg # of iterations =  3.0

     total cpu time spent up to now is       16.6 secs

     total energy              =     -22.85859902 Ry
     Harris-Foulkes estimate   =     -22.85859902 Ry
     estimated scf accuracy    <          1.1E-09 Ry

     iteration # 18     ecut=    70.00 Ry     beta= 0.70
     Davidson diagonalization with overlap
     ethr =  6.74E-12,  avg # of iterations =  2.2

     total cpu time spent up to now is       17.0 secs

     End of self-consistent calculation

     Number of k-points >= 100: set verbosity='high' to print the bands.

     highest occupied level (ev):    13.6639

!    total energy              =     -22.85859902 Ry
     Harris-Foulkes estimate   =     -22.85859902 Ry
     estimated scf accuracy    <          3.5E-13 Ry

     The total energy is the sum of the following terms:

     one-electron contribution =       8.24789239 Ry
     hartree contribution      =       1.88174772 Ry
     xc contribution           =      -7.12646302 Ry
     ewald contribution        =     -25.86177611 Ry

     convergence has been achieved in  18 iterations

     Forces acting on atoms (cartesian axes, Ry/au):

     atom    1 type  1   force =     0.00000000    0.00000000    0.00000000
     atom    2 type  1   force =     0.00000000    0.00000000    0.00000000

     Total force =     0.000000     Total SCF correction =     0.000000


     Computing stress (Cartesian axis) and pressure

          total   stress  (Ry/bohr**3)                   (kbar)     P=   -1.45
  -0.00000983  -0.00000000  -0.00000000         -1.45     -0.00     -0.00
  -0.00000000  -0.00000983  -0.00000000         -0.00     -1.45     -0.00
  -0.00000000  -0.00000000  -0.00000983         -0.00     -0.00     -1.45


     number of scf cycles    =   3
     number of bfgs steps    =   1

     enthalpy old            =     -22.8585532328 Ry
     enthalpy new            =     -22.8585990162 Ry

     CASE: enthalpy_new < enthalpy_old

     new trust radius        =       0.0001776532 bohr
     new conv_thr            =            1.0E-12 Ry

     new unit-cell volume =     74.00694 a.u.^3 (    10.96670 Ang^3 )
     density =      3.63733 g/cm^3

CELL_PARAMETERS (angstrom)
   0.000000000   1.763391008   1.763391008
   1.763391008  -0.000000000   1.763391008
   1.763391008   1.763391008  -0.000000000

ATOMIC_POSITIONS (angstrom)
C        0.000000000  -0.000000000  -0.000000000
C        0.881695504   0.881695504   0.881695504



     Writing output data file pwscf.save
     NEW-OLD atomic charge density approx. for the potential
     extrapolated charge    7.99752, renormalised to    8.00000

     total cpu time spent up to now is       17.3 secs

     Self-consistent Calculation

     iteration #  1     ecut=    70.00 Ry     beta= 0.70
     Davidson diagonalization with overlap
     ethr =  1.00E-06,  avg # of iterations =  2.0

     Threshold (ethr) on eigenvalues was too large:
     Diagonalizing with lowered threshold

     Davidson diagonalization with overlap
     ethr =  5.32E-10,  avg # of iterations =  1.6

     total cpu time spent up to now is       18.0 secs

     total energy              =     -22.85859904 Ry
     Harris-Foulkes estimate   =     -22.85687808 Ry
     estimated scf accuracy    <       0.00000004 Ry

     iteration #  2     ecut=    70.00 Ry     beta= 0.70
     Davidson diagonalization with overlap
     ethr =  5.21E-10,  avg # of iterations =  3.2

     total cpu time spent up to now is       18.5 secs

     total energy              =     -22.85859913 Ry
     Harris-Foulkes estimate   =     -22.85859914 Ry
     estimated scf accuracy    <       0.00000003 Ry

     iteration #  3     ecut=    70.00 Ry     beta= 0.70
     Davidson diagonalization with overlap
     ethr =  3.90E-10,  avg # of iterations =  1.0

     total cpu time spent up to now is       18.8 secs

     total energy              =     -22.85859913 Ry
     Harris-Foulkes estimate   =     -22.85859913 Ry
     estimated scf accuracy    <          9.2E-09 Ry

     iteration #  4     ecut=    70.00 Ry     beta= 0.70
     Davidson diagonalization with overlap
     ethr =  1.16E-10,  avg # of iterations =  2.1

     total cpu time spent up to now is       19.2 secs

     total energy              =     -22.85859913 Ry
     Harris-Foulkes estimate   =     -22.85859913 Ry
     estimated scf accuracy    <          1.1E-09 Ry

     iteration #  5     ecut=    70.00 Ry     beta= 0.70
     Davidson diagonalization with overlap
     ethr =  1.32E-11,  avg # of iterations =  1.0

     total cpu time spent up to now is       19.5 secs

     total energy              =     -22.85859913 Ry
     Harris-Foulkes estimate   =     -22.85859913 Ry
     estimated scf accuracy    <          2.1E-10 Ry

     iteration #  6     ecut=    70.00 Ry     beta= 0.70
     Davidson diagonalization with overlap
     ethr =  2.62E-12,  avg # of iterations =  1.2

     total cpu time spent up to now is       19.7 secs

     total energy              =     -22.85859913 Ry
     Harris-Foulkes estimate   =     -22.85859913 Ry
     estimated scf accuracy    <          3.2E-10 Ry

     iteration #  7     ecut=    70.00 Ry     beta= 0.70
     Davidson diagonalization with overlap
     ethr =  2.62E-12,  avg # of iterations =  3.0

     total cpu time spent up to now is       20.2 secs

     total energy              =     -22.85859913 Ry
     Harris-Foulkes estimate   =     -22.85859913 Ry
     estimated scf accuracy    <          8.4E-11 Ry

     iteration #  8     ecut=    70.00 Ry     beta= 0.70
     Davidson diagonalization with overlap
     ethr =  1.05E-12,  avg # of iterations =  1.0

     total cpu time spent up to now is       20.5 secs

     total energy              =     -22.85859913 Ry
     Harris-Foulkes estimate   =     -22.85859913 Ry
     estimated scf accuracy    <          1.2E-11 Ry

     iteration #  9     ecut=    70.00 Ry     beta= 0.70
     Davidson diagonalization with overlap
     ethr =  1.51E-13,  avg # of iterations =  2.8

     total cpu time spent up to now is       21.0 secs

     End of self-consistent calculation

     Number of k-points >= 100: set verbosity='high' to print the bands.

     highest occupied level (ev):    13.6696

!    total energy              =     -22.85859913 Ry
     Harris-Foulkes estimate   =     -22.85859913 Ry
     estimated scf accuracy    <          3.2E-13 Ry

     The total energy is the sum of the following terms:

     one-electron contribution =       8.25138126 Ry
     hartree contribution      =       1.88145007 Ry
     xc contribution           =      -7.12698416 Ry
     ewald contribution        =     -25.86444630 Ry

     convergence has been achieved in   9 iterations

     Forces acting on atoms (cartesian axes, Ry/au):

     atom    1 type  1   force =    -0.00000000    0.00000000   -0.00000000
     atom    2 type  1   force =     0.00000000   -0.00000000    0.00000000

     Total force =     0.000000     Total SCF correction =     0.000000


     Computing stress (Cartesian axis) and pressure

          total   stress  (Ry/bohr**3)                   (kbar)     P=   -0.01
  -0.00000006   0.00000000   0.00000000         -0.01      0.00      0.00
   0.00000000  -0.00000006  -0.00000000          0.00     -0.01     -0.00
   0.00000000   0.00000000  -0.00000006          0.00      0.00     -0.01


     bfgs converged in   4 scf cycles and   2 bfgs steps
     (criteria: energy <  1.0E-04 Ry, force <  1.0E-03Ry/Bohr, cell <  5.0E-01kbar)

     End of BFGS Geometry Optimization

     Final enthalpy =     -22.8585991297 Ry
Begin final coordinates
     new unit-cell volume =     74.00694 a.u.^3 (    10.96670 Ang^3 )
     density =      3.63733 g/cm^3

CELL_PARAMETERS (angstrom)
   0.000000000   1.763391008   1.763391008
   1.763391008  -0.000000000   1.763391008
   1.763391008   1.763391008  -0.000000000

ATOMIC_POSITIONS (angstrom)
C        0.000000000  -0.000000000  -0.000000000
C        0.881695504   0.881695504   0.881695504
End final coordinates



     A final scf calculation at the relaxed structure.
     The G-vectors are recalculated for the final unit cell
     Results may differ from those at the preceding step.

     Parallelization info
     --------------------
     sticks:   dense  smooth     PW     G-vecs:    dense   smooth      PW
     Min          13      13      4                  184      184      35
     Max          14      14      5                  189      189      37
     Sum         433     433    151                 5961     5961    1139



     bravais-lattice index     =            0
     lattice parameter (alat)  =       4.7036  a.u.
     unit-cell volume          =      74.0069 (a.u.)^3
     number of atoms/cell      =            2
     number of atomic types    =            1
     number of electrons       =         8.00
     number of Kohn-Sham states=            4
     kinetic-energy cutoff     =      70.0000  Ry
     charge density cutoff     =     280.0000  Ry
     convergence threshold     =      1.0E-12
     mixing beta               =       0.7000
     number of iterations used =            8  plain     mixing
     Exchange-correlation      = SLA PZ NOGX NOGC ( 1  1  0  0 0 0)

     celldm(1)=   4.703558  celldm(2)=   0.000000  celldm(3)=   0.000000
     celldm(4)=   0.000000  celldm(5)=   0.000000  celldm(6)=   0.000000

     crystal axes: (cart. coord. in units of alat)
               a(1) = (   0.000000   0.708469   0.708469 )  
               a(2) = (   0.708469  -0.000000   0.708469 )  
               a(3) = (   0.708469   0.708469  -0.000000 )  

     reciprocal axes: (cart. coord. in units 2 pi/alat)
               b(1) = ( -0.705747  0.705747  0.705747 )  
               b(2) = (  0.705747 -0.705747  0.705747 )  
               b(3) = (  0.705747  0.705747 -0.705747 )  


     PseudoPot. # 1 for C  read from file:
     /n/holylfs/LABS/kozinsky_lab/Software/qe-6.2.1/pseudo/C.pz-rrkjus.UPF
     MD5 check sum: b6daa4d29350031528385b7e2af80775
     Pseudo is Ultrasoft, Zval =  4.0
     Generated by new atomic code, or converted to UPF format
     Using radial grid of 1425 points,  4 beta functions with: 
                l(1) =   0
                l(2) =   0
                l(3) =   1
                l(4) =   1
     Q(r) pseudized with 0 coefficients 


     atomic species   valence    mass     pseudopotential
        C              4.00    12.01100     C ( 1.00)

     24 Sym. Ops. (no inversion) found
          (note: 24 additional sym.ops. were found but ignored
           their fractional translations are incommensurate with FFT grid)


   Cartesian axes

     site n.     atom                  positions (alat units)
         1           C   tau(   1) = (   0.0000000  -0.0000000  -0.0000000  )
         2           C   tau(   2) = (   0.3542346   0.3542346   0.3542346  )

     number of k points=   256

     Number of k-points >= 100: set verbosity='high' to print them.

     Dense  grid:     5961 G-vectors     FFT dimensions: (  25,  25,  25)

     Estimated max dynamical RAM per process >       1.18 MB

     Estimated total dynamical RAM >      37.84 MB

     Initial potential from superposition of free atoms

     starting charge    7.99992, renormalised to    8.00000
     Starting wfc are    8 randomized atomic wfcs

     Writing output data file pwscf.save

     total cpu time spent up to now is       21.4 secs

     Self-consistent Calculation

     iteration #  1     ecut=    70.00 Ry     beta= 0.70
     Davidson diagonalization with overlap
     ethr =  1.00E-06,  avg # of iterations =  6.2

     total cpu time spent up to now is       22.3 secs

     total energy              =     -22.84654888 Ry
     Harris-Foulkes estimate   =     -22.92010006 Ry
     estimated scf accuracy    <       0.13672292 Ry

     iteration #  2     ecut=    70.00 Ry     beta= 0.70
     Davidson diagonalization with overlap
     ethr =  1.71E-03,  avg # of iterations =  1.0

     total cpu time spent up to now is       22.6 secs

     total energy              =     -22.85287191 Ry
     Harris-Foulkes estimate   =     -22.85478653 Ry
     estimated scf accuracy    <       0.00450038 Ry

     iteration #  3     ecut=    70.00 Ry     beta= 0.70
     Davidson diagonalization with overlap
     ethr =  5.63E-05,  avg # of iterations =  3.2

     total cpu time spent up to now is       23.1 secs

     total energy              =     -22.85843797 Ry
     Harris-Foulkes estimate   =     -22.85903216 Ry
     estimated scf accuracy    <       0.00104333 Ry

     iteration #  4     ecut=    70.00 Ry     beta= 0.70
     Davidson diagonalization with overlap
     ethr =  1.30E-05,  avg # of iterations =  2.2

     total cpu time spent up to now is       23.5 secs

     total energy              =     -22.85858087 Ry
     Harris-Foulkes estimate   =     -22.85859372 Ry
     estimated scf accuracy    <       0.00002755 Ry

     iteration #  5     ecut=    70.00 Ry     beta= 0.70
     Davidson diagonalization with overlap
     ethr =  3.44E-07,  avg # of iterations =  3.0

     total cpu time spent up to now is       23.9 secs

     total energy              =     -22.85859951 Ry
     Harris-Foulkes estimate   =     -22.85859959 Ry
     estimated scf accuracy    <       0.00000031 Ry

     iteration #  6     ecut=    70.00 Ry     beta= 0.70
     Davidson diagonalization with overlap
     ethr =  3.84E-09,  avg # of iterations =  3.1

     total cpu time spent up to now is       24.4 secs

     total energy              =     -22.85859962 Ry
     Harris-Foulkes estimate   =     -22.85859964 Ry
     estimated scf accuracy    <       0.00000008 Ry

     iteration #  7     ecut=    70.00 Ry     beta= 0.70
     Davidson diagonalization with overlap
     ethr =  1.06E-09,  avg # of iterations =  1.8

     total cpu time spent up to now is       24.7 secs

     total energy              =     -22.85859962 Ry
     Harris-Foulkes estimate   =     -22.85859963 Ry
     estimated scf accuracy    <       0.00000001 Ry

     iteration #  8     ecut=    70.00 Ry     beta= 0.70
     Davidson diagonalization with overlap
     ethr =  1.35E-10,  avg # of iterations =  3.0

     total cpu time spent up to now is       25.2 secs

     total energy              =     -22.85859963 Ry
     Harris-Foulkes estimate   =     -22.85859963 Ry
     estimated scf accuracy    <          2.5E-10 Ry

     iteration #  9     ecut=    70.00 Ry     beta= 0.70
     Davidson diagonalization with overlap
     ethr =  3.07E-12,  avg # of iterations =  3.3

     total cpu time spent up to now is       25.6 secs

     total energy              =     -22.85859963 Ry
     Harris-Foulkes estimate   =     -22.85859963 Ry
     estimated scf accuracy    <          4.7E-10 Ry

     iteration # 10     ecut=    70.00 Ry     beta= 0.70
     Davidson diagonalization with overlap
     ethr =  3.07E-12,  avg # of iterations =  1.0

     total cpu time spent up to now is       25.9 secs

     total energy              =     -22.85859963 Ry
     Harris-Foulkes estimate   =     -22.85859963 Ry
     estimated scf accuracy    <          9.0E-11 Ry

     iteration # 11     ecut=    70.00 Ry     beta= 0.70
     Davidson diagonalization with overlap
     ethr =  1.12E-12,  avg # of iterations =  1.0

     total cpu time spent up to now is       26.2 secs

     total energy              =     -22.85859963 Ry
     Harris-Foulkes estimate   =     -22.85859963 Ry
     estimated scf accuracy    <          6.7E-11 Ry

     iteration # 12     ecut=    70.00 Ry     beta= 0.70
     Davidson diagonalization with overlap
     ethr =  8.34E-13,  avg # of iterations =  1.0

     total cpu time spent up to now is       26.5 secs

     total energy              =     -22.85859963 Ry
     Harris-Foulkes estimate   =     -22.85859963 Ry
     estimated scf accuracy    <          2.4E-11 Ry

     iteration # 13     ecut=    70.00 Ry     beta= 0.70
     Davidson diagonalization with overlap
     ethr =  3.05E-13,  avg # of iterations =  2.4

     total cpu time spent up to now is       26.9 secs

     total energy              =     -22.85859963 Ry
     Harris-Foulkes estimate   =     -22.85859963 Ry
     estimated scf accuracy    <          1.8E-12 Ry

     iteration # 14     ecut=    70.00 Ry     beta= 0.70
     Davidson diagonalization with overlap
     ethr =  1.00E-13,  avg # of iterations =  1.1

     total cpu time spent up to now is       27.1 secs

     End of self-consistent calculation

     Number of k-points >= 100: set verbosity='high' to print the bands.

     highest occupied level (ev):    13.6696

!    total energy              =     -22.85859963 Ry
     Harris-Foulkes estimate   =     -22.85859963 Ry
     estimated scf accuracy    <          3.0E-13 Ry

     The total energy is the sum of the following terms:

     one-electron contribution =       8.25138013 Ry
     hartree contribution      =       1.88144982 Ry
     xc contribution           =      -7.12698328 Ry
     ewald contribution        =     -25.86444630 Ry

     convergence has been achieved in  14 iterations

     Forces acting on atoms (cartesian axes, Ry/au):

     atom    1 type  1   force =     0.00000000    0.00000000    0.00000000
     atom    2 type  1   force =    -0.00000000    0.00000000    0.00000000

     Total force =     0.000000     Total SCF correction =     0.000000


     Computing stress (Cartesian axis) and pressure

          total   stress  (Ry/bohr**3)                   (kbar)     P=   -0.02
  -0.00000013  -0.00000000  -0.00000000         -0.02     -0.00     -0.00
  -0.00000000  -0.00000013  -0.00000000         -0.00     -0.02     -0.00
  -0.00000000   0.00000000  -0.00000013         -0.00      0.00     -0.02


     Writing output data file pwscf.save

     init_run     :      0.47s CPU      0.57s WALL (       2 calls)
     electrons    :     22.12s CPU     25.38s WALL (       5 calls)
     update_pot   :      0.06s CPU      0.11s WALL (       3 calls)
     forces       :      0.15s CPU      0.16s WALL (       5 calls)
     stress       :      0.25s CPU      0.26s WALL (       5 calls)

     Called by init_run:
     wfcinit      :      0.38s CPU      0.48s WALL (       2 calls)
     potinit      :      0.01s CPU      0.02s WALL (       2 calls)

     Called by electrons:
     c_bands      :     19.46s CPU     22.12s WALL (      62 calls)
     sum_band     :      2.53s CPU      2.91s WALL (      62 calls)
     v_of_rho     :      0.01s CPU      0.02s WALL (      66 calls)
     newd         :      0.02s CPU      0.02s WALL (      66 calls)
     mix_rho      :      0.02s CPU      0.02s WALL (      62 calls)

     Called by c_bands:
     init_us_2    :      0.24s CPU      0.28s WALL (   34816 calls)
     cegterg      :     18.86s CPU     21.43s WALL (   15872 calls)

     Called by sum_band:
     sum_band:bec :      0.04s CPU      0.04s WALL (   15872 calls)
     addusdens    :      0.02s CPU      0.02s WALL (      62 calls)

     Called by *egterg:
     h_psi        :     14.12s CPU     16.04s WALL (   52745 calls)
     s_psi        :      0.22s CPU      0.25s WALL (   52745 calls)
     g_psi        :      0.05s CPU      0.06s WALL (   36361 calls)
     cdiaghg      :      2.01s CPU      2.28s WALL (   51209 calls)

     Called by h_psi:
     h_psi:pot    :     14.00s CPU     15.91s WALL (   52745 calls)
     h_psi:calbec :      0.98s CPU      1.11s WALL (   52745 calls)
     vloc_psi     :     12.59s CPU     14.31s WALL (   52745 calls)
     add_vuspsi   :      0.23s CPU      0.26s WALL (   52745 calls)

     General routines
     calbec       :      1.27s CPU      1.44s WALL (   75017 calls)
     fft          :      0.04s CPU      0.06s WALL (     422 calls)
     fftw         :     13.87s CPU     15.78s WALL (  451096 calls)

     Parallel routines
     fft_scatt_xy :      0.66s CPU      0.75s WALL (  451518 calls)
     fft_scatt_yz :      7.72s CPU      8.80s WALL (  451518 calls)

     PWSCF        :    23.57s CPU        31.00s WALL


   This run was terminated on:  19:29:44   7Oct2018            

=------------------------------------------------------------------------------=
   JOB DONE.
=------------------------------------------------------------------------------=
