
     Program PWSCF v.6.1 (svn rev. 13369) starts on 30Sep2018 at 14:43:40 

     This program is part of the open-source Quantum ESPRESSO suite
     for quantum simulation of materials; please cite
         "P. Giannozzi et al., J. Phys.:Condens. Matter 21 395502 (2009);
          URL http://www.quantum-espresso.org", 
     in publications or presentations arising from this work. More details at
     http://www.quantum-espresso.org/quote

     Parallel version (MPI), running on    64 processors
     R & G space division:  proc/nbgrp/npool/nimage =      64
     Reading input from Al_scf_relax.in

     Current dimensions of program PWSCF are:
     Max number of different atomic species (ntypx) = 10
     Max number of k-points (npk) =  40000
     Max angular momentum in pseudopotentials (lmaxx) =  3

     Subspace diagonalization in iterative solution of the eigenvalue problem:
     a serial algorithm will be used


     Parallelization info
     --------------------
     sticks:   dense  smooth     PW     G-vecs:    dense   smooth      PW
     Min          45      45     12                 1813     1813     262
     Max          46      46     13                 1819     1819     265
     Sum        2885    2885    793               116249   116249   16831



     bravais-lattice index     =            0
     lattice parameter (alat)  =      15.0352  a.u.
     unit-cell volume          =    3398.8476 (a.u.)^3
     number of atoms/cell      =           31
     number of atomic types    =            1
     number of electrons       =        93.00
     number of Kohn-Sham states=           56
     kinetic-energy cutoff     =      40.0000  Ry
     charge density cutoff     =     160.0000  Ry
     convergence threshold     =      1.0E-07
     mixing beta               =       0.5000
     number of iterations used =            8  plain     mixing
     Exchange-correlation      =  SLA  PW   PBE  PBE ( 1  4  3  4 0 0)
     nstep                     =           50


     celldm(1)=  15.035247  celldm(2)=   0.000000  celldm(3)=   0.000000
     celldm(4)=   0.000000  celldm(5)=   0.000000  celldm(6)=   0.000000

     crystal axes: (cart. coord. in units of alat)
               a(1) = (   1.000000   0.000000   0.000000 )  
               a(2) = (   0.000000   1.000000   0.000000 )  
               a(3) = (   0.000000   0.000000   1.000000 )  

     reciprocal axes: (cart. coord. in units 2 pi/alat)
               b(1) = (  1.000000  0.000000  0.000000 )  
               b(2) = (  0.000000  1.000000  0.000000 )  
               b(3) = (  0.000000  0.000000  1.000000 )  


     PseudoPot. # 1 for Al read from file:
     /home/homesoftware/espresso-6.1/qe-6.1/pseudo/Al.pbe-rrkj.UPF
     MD5 check sum: b5320f8fdc07ab0d74f109f4aa58256b
     Pseudo is Norm-conserving, Zval =  3.0
     Generated by new atomic code, or converted to UPF format
     Using radial grid of  879 points,  4 beta functions with: 
                l(1) =   0
                l(2) =   0
                l(3) =   1
                l(4) =   1

     atomic species   valence    mass     pseudopotential
        Al             3.00    26.98154     Al( 1.00)

     No symmetry found



   Cartesian axes

     site n.     atom                  positions (alat units)
         1           Al  tau(   1) = (  -0.0000000  -0.0000000  -0.0000000  )
         2           Al  tau(   2) = (  -0.0000000   0.2501031   0.2501031  )
         3           Al  tau(   3) = (   0.2634045  -0.0000000   0.2365964  )
         4           Al  tau(   4) = (   0.2634045   0.2365964  -0.0000000  )
         5           Al  tau(   5) = (  -0.0000000  -0.0000000   0.4999992  )
         6           Al  tau(   6) = (  -0.0000000   0.2501031   0.7498971  )
         7           Al  tau(   7) = (   0.2634045  -0.0000000   0.7634038  )
         8           Al  tau(   8) = (   0.2498978   0.2501031   0.4999992  )
         9           Al  tau(   9) = (  -0.0000000   0.4999992  -0.0000000  )
        10           Al  tau(  10) = (  -0.0000000   0.7498971   0.2501031  )
        11           Al  tau(  11) = (   0.2498978   0.4999992   0.2501031  )
        12           Al  tau(  12) = (   0.2634045   0.7634038  -0.0000000  )
        13           Al  tau(  13) = (  -0.0000000   0.4999992   0.4999992  )
        14           Al  tau(  14) = (  -0.0000000   0.7498971   0.7498971  )
        15           Al  tau(  15) = (   0.2498978   0.4999992   0.7498971  )
        16           Al  tau(  16) = (   0.2498978   0.7498971   0.4999992  )
        17           Al  tau(  17) = (   0.4999992   0.2365964   0.2365964  )
        18           Al  tau(  18) = (   0.7365956  -0.0000000   0.2365964  )
        19           Al  tau(  19) = (   0.7365956   0.2365964  -0.0000000  )
        20           Al  tau(  20) = (   0.4999992  -0.0000000   0.4999992  )
        21           Al  tau(  21) = (   0.4999992   0.2365964   0.7634037  )
        22           Al  tau(  22) = (   0.7365956  -0.0000000   0.7634037  )
        23           Al  tau(  23) = (   0.7501023   0.2501031   0.4999992  )
        24           Al  tau(  24) = (   0.4999992   0.4999992  -0.0000000  )
        25           Al  tau(  25) = (   0.4999992   0.7634037   0.2365964  )
        26           Al  tau(  26) = (   0.7501023   0.4999992   0.2501031  )
        27           Al  tau(  27) = (   0.7365956   0.7634037  -0.0000000  )
        28           Al  tau(  28) = (   0.4999992   0.4999992   0.4999992  )
        29           Al  tau(  29) = (   0.4999992   0.7634037   0.7634037  )
        30           Al  tau(  30) = (   0.7501023   0.4999992   0.7498971  )
        31           Al  tau(  31) = (   0.7501023   0.7498971   0.4999992  )

     number of k points=   172  Methfessel-Paxton smearing, width (Ry)=  0.0200

     Number of k-points >= 100: set verbosity='high' to print them.

     Dense  grid:   116249 G-vectors     FFT dimensions: (  64,  64,  64)

     Estimated max dynamical RAM per process >      37.79MB

     Estimated total allocated dynamical RAM >    2418.43MB

     Initial potential from superposition of free atoms

     starting charge   92.91972, renormalised to   93.00000
     Starting wfc are  124 randomized atomic wfcs

     total cpu time spent up to now is      383.2 secs

     per-process dynamical memory:    74.5 Mb

     Self-consistent Calculation

     iteration #  1     ecut=    40.00 Ry     beta=0.50
     Davidson diagonalization with overlap
     ethr =  1.00E-02,  avg # of iterations =  3.1

     Threshold (ethr) on eigenvalues was too large:
     Diagonalizing with lowered threshold

     Davidson diagonalization with overlap
     ethr =  2.11E-04,  avg # of iterations =  4.6

     total cpu time spent up to now is     1040.2 secs

     total energy              =    -128.24752878 Ry
     Harris-Foulkes estimate   =    -128.26188195 Ry
     estimated scf accuracy    <       0.19925726 Ry

     iteration #  2     ecut=    40.00 Ry     beta=0.50
     Davidson diagonalization with overlap
     ethr =  2.14E-04,  avg # of iterations =  1.1

     total cpu time spent up to now is     1201.0 secs

     total energy              =    -128.25147492 Ry
     Harris-Foulkes estimate   =    -128.25521252 Ry
     estimated scf accuracy    <       0.05028903 Ry

     iteration #  3     ecut=    40.00 Ry     beta=0.50
     Davidson diagonalization with overlap
     ethr =  5.41E-05,  avg # of iterations =  4.7

     total cpu time spent up to now is     1659.6 secs

     total energy              =    -128.24286758 Ry
     Harris-Foulkes estimate   =    -128.26773314 Ry
     estimated scf accuracy    <       0.08396084 Ry

     iteration #  4     ecut=    40.00 Ry     beta=0.50
     Davidson diagonalization with overlap
     ethr =  5.41E-05,  avg # of iterations =  3.2

     total cpu time spent up to now is     1983.7 secs

     total energy              =    -128.25612882 Ry
     Harris-Foulkes estimate   =    -128.25880509 Ry
     estimated scf accuracy    <       0.01085421 Ry

     iteration #  5     ecut=    40.00 Ry     beta=0.50
     Davidson diagonalization with overlap
     ethr =  1.17E-05,  avg # of iterations =  2.3

     total cpu time spent up to now is     2232.5 secs

     total energy              =    -128.25746220 Ry
     Harris-Foulkes estimate   =    -128.25756222 Ry
     estimated scf accuracy    <       0.00030227 Ry

     iteration #  6     ecut=    40.00 Ry     beta=0.50
     Davidson diagonalization with overlap
     c_bands:  1 eigenvalues not converged
     c_bands:  1 eigenvalues not converged
     c_bands:  1 eigenvalues not converged
     ethr =  3.25E-07,  avg # of iterations =  4.2

     total cpu time spent up to now is     2641.5 secs

     total energy              =    -128.25755920 Ry
     Harris-Foulkes estimate   =    -128.25756452 Ry
     estimated scf accuracy    <       0.00003406 Ry

     iteration #  7     ecut=    40.00 Ry     beta=0.50
     Davidson diagonalization with overlap
     ethr =  3.66E-08,  avg # of iterations =  2.1

     total cpu time spent up to now is     2868.3 secs

     total energy              =    -128.25756291 Ry
     Harris-Foulkes estimate   =    -128.25756306 Ry
     estimated scf accuracy    <       0.00000186 Ry

     iteration #  8     ecut=    40.00 Ry     beta=0.50
     Davidson diagonalization with overlap
     ethr =  2.00E-09,  avg # of iterations =  3.5

     total cpu time spent up to now is     3219.4 secs

     total energy              =    -128.25756374 Ry
     Harris-Foulkes estimate   =    -128.25756403 Ry
     estimated scf accuracy    <       0.00000259 Ry

     iteration #  9     ecut=    40.00 Ry     beta=0.50
     Davidson diagonalization with overlap
     ethr =  2.00E-09,  avg # of iterations =  1.4

     total cpu time spent up to now is     3403.0 secs

     total energy              =    -128.25756345 Ry
     Harris-Foulkes estimate   =    -128.25756383 Ry
     estimated scf accuracy    <       0.00000109 Ry

     iteration # 10     ecut=    40.00 Ry     beta=0.50
     Davidson diagonalization with overlap
     ethr =  1.17E-09,  avg # of iterations =  2.7

     total cpu time spent up to now is     3672.4 secs

     total energy              =    -128.25756368 Ry
     Harris-Foulkes estimate   =    -128.25756375 Ry
     estimated scf accuracy    <       0.00000030 Ry

     iteration # 11     ecut=    40.00 Ry     beta=0.50
     Davidson diagonalization with overlap
     ethr =  3.21E-10,  avg # of iterations =  2.0

     total cpu time spent up to now is     3886.2 secs

     End of self-consistent calculation

     Number of k-points >= 100: set verbosity='high' to print the bands.

     the Fermi energy is     8.0837 ev

!    total energy              =    -128.25756369 Ry
     Harris-Foulkes estimate   =    -128.25756371 Ry
     estimated scf accuracy    <       0.00000002 Ry

     The total energy is the sum of the following terms:

     one-electron contribution =      88.65225669 Ry
     hartree contribution      =       0.74473707 Ry
     xc contribution           =     -50.18942462 Ry
     ewald contribution        =    -167.46418145 Ry
     smearing contrib. (-TS)   =      -0.00095138 Ry

     convergence has been achieved in  11 iterations

     Forces acting on atoms (cartesian axes, Ry/au):

     atom    1 type  1   force =    -0.00000004    0.00000033    0.00000069
     atom    2 type  1   force =     0.00000004   -0.00443629   -0.00443538
     atom    3 type  1   force =    -0.01939651    0.00000018    0.01939540
     atom    4 type  1   force =    -0.01939676    0.01939483    0.00000087
     atom    5 type  1   force =     0.00000004    0.00000049    0.00000061
     atom    6 type  1   force =     0.00000002   -0.00443622    0.00443385
     atom    7 type  1   force =    -0.01939672    0.00000023   -0.01939667
     atom    8 type  1   force =     0.00443437   -0.00443615    0.00000078
     atom    9 type  1   force =     0.00000011    0.00000102    0.00000060
     atom   10 type  1   force =     0.00000008    0.00443444   -0.00443549
     atom   11 type  1   force =     0.00443446    0.00000132   -0.00443542
     atom   12 type  1   force =    -0.01939652   -0.01939621    0.00000086
     atom   13 type  1   force =     0.00000015    0.00000175    0.00000078
     atom   14 type  1   force =     0.00000006    0.00443443    0.00443401
     atom   15 type  1   force =     0.00443441    0.00000135    0.00443394
     atom   16 type  1   force =     0.00443452    0.00443440    0.00000077
     atom   17 type  1   force =     0.00000188    0.01939526    0.01939605
     atom   18 type  1   force =     0.01939483    0.00000024    0.01939572
     atom   19 type  1   force =     0.01939507    0.01939509    0.00000082
     atom   20 type  1   force =     0.00000143    0.00000012    0.00000056
     atom   21 type  1   force =     0.00000192    0.01939546   -0.01939732
     atom   22 type  1   force =     0.01939502    0.00000029   -0.01939697
     atom   23 type  1   force =    -0.00443575   -0.00443629    0.00000080
     atom   24 type  1   force =     0.00000136    0.00000151    0.00000067
     atom   25 type  1   force =     0.00000183   -0.01939652    0.01939589
     atom   26 type  1   force =    -0.00443583    0.00000130   -0.00443550
     atom   27 type  1   force =     0.01939483   -0.01939648    0.00000081
     atom   28 type  1   force =     0.00000149    0.00000099    0.00000056
     atom   29 type  1   force =     0.00000189   -0.01939674   -0.01939711
     atom   30 type  1   force =    -0.00443579    0.00000132    0.00443402
     atom   31 type  1   force =    -0.00443589    0.00443455    0.00000079

     Total force =     0.097473     Total SCF correction =     0.000199


     Computing stress (Cartesian axis) and pressure

          total   stress  (Ry/bohr**3)                   (kbar)     P=   43.48
   0.00029559   0.00000000  -0.00000000         43.48      0.00     -0.00
   0.00000000   0.00029559  -0.00000000          0.00     43.48     -0.00
  -0.00000000  -0.00000000   0.00029559         -0.00     -0.00     43.48


     BFGS Geometry Optimization

     number of scf cycles    =   1
     number of bfgs steps    =   0

     energy   new            =    -128.2575636926 Ry

     new trust radius        =       0.0274313918 bohr
     new conv_thr            =       0.0000001000 Ry


ATOMIC_POSITIONS (angstrom)
Al      -0.000000038   0.000000157   0.000000346
Al       0.000000005   1.987549817   1.987550297
Al       2.085463329   0.000000079   1.892697615
Al       2.085463196   1.892697315   0.000000443
Al       0.000000010   0.000000243   3.978149319
Al      -0.000000003   1.987549853   5.968759953
Al       2.085463200   0.000000106   6.063612719
Al       1.990611237   1.987549901   3.978149396
Al       0.000000045   3.978149537   0.000000299
Al       0.000000027   5.968760266   1.987550239
Al       1.990611284   3.978149681   1.987550289
Al       2.085463306   6.063612958   0.000000436
Al       0.000000064   3.978149883   3.978149371
Al       0.000000015   5.968760259   5.968760034
Al       1.990611256   3.978149697   5.968759989
Al       1.990611315   5.968760234   3.978149391
Al       3.978149932   1.892697793   1.892698213
Al       5.870846613   0.000000109   1.892698079
Al       5.870846741   1.892697745   0.000000418
Al       3.978149704   0.000000049   3.978149278
Al       3.978149953   1.892697914   6.063612123
Al       5.870846730   0.000000134   6.063612264
Al       5.965699084   1.987549826   3.978149406
Al       3.978149668   3.978149779   0.000000336
Al       3.978149904   6.063612543   1.892698143
Al       5.965699041   3.978149669   1.987550244
Al       5.870846629   6.063612523   0.000000412
Al       3.978149745   3.978149520   3.978149293
Al       3.978149933   6.063612412   6.063612219
Al       5.965699065   3.978149682   5.968760037
Al       5.965699009   5.968760317   3.978149401



     Writing output data file Al.save
     NEW-OLD atomic charge density approx. for the potential

     total cpu time spent up to now is     4502.7 secs

     per-process dynamical memory:    82.9 Mb

     Self-consistent Calculation

     iteration #  1     ecut=    40.00 Ry     beta=0.50
     Davidson diagonalization with overlap
     ethr =  1.00E-06,  avg # of iterations =  4.7

     total cpu time spent up to now is     4902.6 secs

     total energy              =    -128.26563422 Ry
     Harris-Foulkes estimate   =    -128.26653579 Ry
     estimated scf accuracy    <       0.00137317 Ry

     iteration #  2     ecut=    40.00 Ry     beta=0.50
     Davidson diagonalization with overlap
     ethr =  1.48E-06,  avg # of iterations =  3.0

     total cpu time spent up to now is     5218.9 secs

     total energy              =    -128.26561614 Ry
     Harris-Foulkes estimate   =    -128.26684815 Ry
     estimated scf accuracy    <       0.00406924 Ry

     iteration #  3     ecut=    40.00 Ry     beta=0.50
     Davidson diagonalization with overlap
     ethr =  1.48E-06,  avg # of iterations =  3.1

     total cpu time spent up to now is     5543.7 secs

     total energy              =    -128.26620944 Ry
     Harris-Foulkes estimate   =    -128.26632113 Ry
     estimated scf accuracy    <       0.00041011 Ry

     iteration #  4     ecut=    40.00 Ry     beta=0.50
     Davidson diagonalization with overlap
     ethr =  4.41E-07,  avg # of iterations =  2.0

     total cpu time spent up to now is     5759.8 secs

     total energy              =    -128.26626233 Ry
     Harris-Foulkes estimate   =    -128.26626274 Ry
     estimated scf accuracy    <       0.00000370 Ry

     iteration #  5     ecut=    40.00 Ry     beta=0.50
     Davidson diagonalization with overlap
     ethr =  3.98E-09,  avg # of iterations =  3.7

     total cpu time spent up to now is     6125.6 secs

     total energy              =    -128.26626399 Ry
     Harris-Foulkes estimate   =    -128.26626425 Ry
     estimated scf accuracy    <       0.00000136 Ry

     iteration #  6     ecut=    40.00 Ry     beta=0.50
     Davidson diagonalization with overlap
     ethr =  1.46E-09,  avg # of iterations =  2.0

     total cpu time spent up to now is     6341.5 secs

     total energy              =    -128.26626409 Ry
     Harris-Foulkes estimate   =    -128.26626411 Ry
     estimated scf accuracy    <       0.00000015 Ry

     iteration #  7     ecut=    40.00 Ry     beta=0.50
     Davidson diagonalization with overlap
     ethr =  1.57E-10,  avg # of iterations =  3.0

     total cpu time spent up to now is     6632.2 secs

     End of self-consistent calculation

     Number of k-points >= 100: set verbosity='high' to print the bands.

     the Fermi energy is     8.0838 ev

!    total energy              =    -128.26626405 Ry
     Harris-Foulkes estimate   =    -128.26626414 Ry
     estimated scf accuracy    <       0.00000010 Ry

     The total energy is the sum of the following terms:

     one-electron contribution =      88.56819471 Ry
     hartree contribution      =       0.78545171 Ry
     xc contribution           =     -50.18927508 Ry
     ewald contribution        =    -167.42974624 Ry
     smearing contrib. (-TS)   =      -0.00088915 Ry

     convergence has been achieved in   7 iterations

     Forces acting on atoms (cartesian axes, Ry/au):

     atom    1 type  1   force =     0.00000007    0.00000037    0.00000002
     atom    2 type  1   force =     0.00000007   -0.00327447   -0.00327963
     atom    3 type  1   force =    -0.01624220    0.00000043    0.01622540
     atom    4 type  1   force =    -0.01624140    0.01623070   -0.00000003
     atom    5 type  1   force =     0.00000010    0.00000029    0.00000098
     atom    6 type  1   force =     0.00000009   -0.00327429    0.00327837
     atom    7 type  1   force =    -0.01624221    0.00000041   -0.01622635
     atom    8 type  1   force =     0.00326481   -0.00327410    0.00000117
     atom    9 type  1   force =     0.00000010    0.00000059   -0.00000023
     atom   10 type  1   force =     0.00000005    0.00327327   -0.00327961
     atom   11 type  1   force =     0.00326491    0.00000075   -0.00327948
     atom   12 type  1   force =    -0.01624141   -0.01623161   -0.00000005
     atom   13 type  1   force =     0.00000012    0.00000083    0.00000140
     atom   14 type  1   force =     0.00000007    0.00327311    0.00327835
     atom   15 type  1   force =     0.00326477    0.00000076    0.00327822
     atom   16 type  1   force =     0.00326478    0.00327287    0.00000119
     atom   17 type  1   force =     0.00000131    0.01623305    0.01622708
     atom   18 type  1   force =     0.01624097    0.00000041    0.01622565
     atom   19 type  1   force =     0.01624018    0.01623095   -0.00000001
     atom   20 type  1   force =     0.00000103    0.00000044    0.00000111
     atom   21 type  1   force =     0.00000128    0.01623307   -0.01622803
     atom   22 type  1   force =     0.01624099    0.00000039   -0.01622660
     atom   23 type  1   force =    -0.00326587   -0.00327413    0.00000115
     atom   24 type  1   force =     0.00000104    0.00000074    0.00000000
     atom   25 type  1   force =     0.00000134   -0.01623401    0.01622706
     atom   26 type  1   force =    -0.00326599    0.00000077   -0.00327951
     atom   27 type  1   force =     0.01624018   -0.01623187   -0.00000002
     atom   28 type  1   force =     0.00000120    0.00000062    0.00000100
     atom   29 type  1   force =     0.00000131   -0.01623403   -0.01622802
     atom   30 type  1   force =    -0.00326584    0.00000078    0.00327825
     atom   31 type  1   force =    -0.00326585    0.00327289    0.00000117

     Total force =     0.081127     Total SCF correction =     0.000440


     Computing stress (Cartesian axis) and pressure

          total   stress  (Ry/bohr**3)                   (kbar)     P=   42.58
   0.00028948  -0.00000000   0.00000000         42.58     -0.00      0.00
  -0.00000000   0.00028947   0.00000000         -0.00     42.58      0.00
   0.00000000   0.00000000   0.00028946          0.00      0.00     42.58


     number of scf cycles    =   2
     number of bfgs steps    =   1

     energy   old            =    -128.2575636926 Ry
     energy   new            =    -128.2662640477 Ry

     CASE: energy  _new < energy  _old


     WARNING: bfgs curvature condition failed, Theta= 0.962
     new trust radius        =       0.0301745310 bohr
     new conv_thr            =       0.0000000162 Ry


ATOMIC_POSITIONS (angstrom)
Al       0.000000008   0.000000414   0.000000373
Al       0.000000055   1.985260358   1.985257415
Al       2.074168685   0.000000373   1.903981029
Al       2.074169075   1.903984248   0.000000441
Al       0.000000081   0.000000451   3.978149986
Al       0.000000058   1.985260511   5.971051957
Al       2.074168544   0.000000388   6.052328643
Al       1.992894207   1.985260687   3.978150197
Al       0.000000116   3.978149954   0.000000158
Al       0.000000063   5.971048886   1.985257367
Al       1.992894326   3.978150213   1.985257506
Al       2.074169183   6.052325380   0.000000426
Al       0.000000149   3.978150477   3.978150326
Al       0.000000063   5.971048770   5.971052032
Al       1.992894200   3.978150233   5.971051895
Al       1.992894272   5.971048586   3.978150202
Al       3.978150850   1.903986304   1.903982759
Al       5.882140396   0.000000386   1.903981665
Al       5.882140003   1.903984853   0.000000433
Al       3.978150426   0.000000345   3.978150032
Al       3.978150852   1.903986447   6.052326912
Al       5.882140533   0.000000399   6.052328011
Al       5.963415370   1.985260592   3.978150195
Al       3.978150396   3.978150310   0.000000355
Al       3.978150839   6.052323362   1.903982675
Al       5.963415248   3.978150214   1.985257441
Al       5.882139891   6.052324770   0.000000419
Al       3.978150583   3.978149960   3.978149972
Al       3.978150848   6.052323210   6.052327017
Al       5.963415375   3.978150232   5.971051964
Al       5.963415304   5.971048686   3.978150200



     Writing output data file Al.save
     NEW-OLD atomic charge density approx. for the potential

     total cpu time spent up to now is     7256.2 secs

     per-process dynamical memory:    92.6 Mb

     Self-consistent Calculation

     iteration #  1     ecut=    40.00 Ry     beta=0.50
     Davidson diagonalization with overlap
     ethr =  1.00E-06,  avg # of iterations =  4.8

     total cpu time spent up to now is     7660.3 secs

     total energy              =    -128.27327868 Ry
     Harris-Foulkes estimate   =    -128.27429396 Ry
     estimated scf accuracy    <       0.00154967 Ry

     iteration #  2     ecut=    40.00 Ry     beta=0.50
     Davidson diagonalization with overlap
     ethr =  1.67E-06,  avg # of iterations =  3.1

     total cpu time spent up to now is     7977.8 secs

     total energy              =    -128.27326410 Ry
     Harris-Foulkes estimate   =    -128.27463308 Ry
     estimated scf accuracy    <       0.00449729 Ry

     iteration #  3     ecut=    40.00 Ry     beta=0.50
     Davidson diagonalization with overlap
     ethr =  1.67E-06,  avg # of iterations =  3.2

     total cpu time spent up to now is     8309.3 secs

     total energy              =    -128.27392334 Ry
     Harris-Foulkes estimate   =    -128.27405028 Ry
     estimated scf accuracy    <       0.00046657 Ry

     iteration #  4     ecut=    40.00 Ry     beta=0.50
     Davidson diagonalization with overlap
     ethr =  5.02E-07,  avg # of iterations =  2.0

     total cpu time spent up to now is     8529.5 secs

     total energy              =    -128.27398338 Ry
     Harris-Foulkes estimate   =    -128.27398385 Ry
     estimated scf accuracy    <       0.00000429 Ry

     iteration #  5     ecut=    40.00 Ry     beta=0.50
     Davidson diagonalization with overlap
     ethr =  4.61E-09,  avg # of iterations =  3.7

     total cpu time spent up to now is     8895.4 secs

     total energy              =    -128.27398522 Ry
     Harris-Foulkes estimate   =    -128.27398556 Ry
     estimated scf accuracy    <       0.00000163 Ry

     iteration #  6     ecut=    40.00 Ry     beta=0.50
     Davidson diagonalization with overlap
     ethr =  1.75E-09,  avg # of iterations =  2.1

     total cpu time spent up to now is     9128.6 secs

     total energy              =    -128.27398530 Ry
     Harris-Foulkes estimate   =    -128.27398544 Ry
     estimated scf accuracy    <       0.00000044 Ry

     iteration #  7     ecut=    40.00 Ry     beta=0.50
     Davidson diagonalization with overlap
     ethr =  4.73E-10,  avg # of iterations =  2.6

     total cpu time spent up to now is     9398.5 secs

     total energy              =    -128.27398537 Ry
     Harris-Foulkes estimate   =    -128.27398544 Ry
     estimated scf accuracy    <       0.00000032 Ry

     iteration #  8     ecut=    40.00 Ry     beta=0.50
     Davidson diagonalization with overlap
     ethr =  3.48E-10,  avg # of iterations =  2.1

     total cpu time spent up to now is     9627.3 secs

     End of self-consistent calculation

     Number of k-points >= 100: set verbosity='high' to print the bands.

     the Fermi energy is     8.0838 ev

!    total energy              =    -128.27398540 Ry
     Harris-Foulkes estimate   =    -128.27398541 Ry
     estimated scf accuracy    <          7.5E-09 Ry

     The total energy is the sum of the following terms:

     one-electron contribution =      88.44856861 Ry
     hartree contribution      =       0.84319467 Ry
     xc contribution           =     -50.19064160 Ry
     ewald contribution        =    -167.37426842 Ry
     smearing contrib. (-TS)   =      -0.00083866 Ry

     convergence has been achieved in   8 iterations

     Forces acting on atoms (cartesian axes, Ry/au):

     atom    1 type  1   force =    -0.00000017   -0.00000022   -0.00000018
     atom    2 type  1   force =    -0.00000013   -0.00207258   -0.00207255
     atom    3 type  1   force =    -0.01286007   -0.00000022    0.01286243
     atom    4 type  1   force =    -0.01286115    0.01286171   -0.00000023
     atom    5 type  1   force =    -0.00000008   -0.00000034    0.00000090
     atom    6 type  1   force =    -0.00000012   -0.00207265    0.00207165
     atom    7 type  1   force =    -0.01285996   -0.00000023   -0.01286318
     atom    8 type  1   force =     0.00207219   -0.00207365    0.00000102
     atom    9 type  1   force =    -0.00000009    0.00000091   -0.00000016
     atom   10 type  1   force =    -0.00000013    0.00207173   -0.00207253
     atom   11 type  1   force =     0.00207182    0.00000100   -0.00207284
     atom   12 type  1   force =    -0.01286121   -0.01286241   -0.00000023
     atom   13 type  1   force =    -0.00000013    0.00000105    0.00000101
     atom   14 type  1   force =    -0.00000013    0.00207181    0.00207162
     atom   15 type  1   force =     0.00207189    0.00000100    0.00207194
     atom   16 type  1   force =     0.00207213    0.00207279    0.00000102
     atom   17 type  1   force =     0.00000104    0.01285980    0.01286119
     atom   18 type  1   force =     0.01285930   -0.00000023    0.01286255
     atom   19 type  1   force =     0.01286038    0.01286183   -0.00000023
     atom   20 type  1   force =     0.00000092   -0.00000017    0.00000114
     atom   21 type  1   force =     0.00000103    0.01285969   -0.01286192
     atom   22 type  1   force =     0.01285920   -0.00000024   -0.01286329
     atom   23 type  1   force =    -0.00207295   -0.00207363    0.00000101
     atom   24 type  1   force =     0.00000093    0.00000100   -0.00000018
     atom   25 type  1   force =     0.00000105   -0.01286051    0.01286120
     atom   26 type  1   force =    -0.00207258    0.00000101   -0.00207283
     atom   27 type  1   force =     0.01286044   -0.01286253   -0.00000022
     atom   28 type  1   force =     0.00000106    0.00000088    0.00000089
     atom   29 type  1   force =     0.00000104   -0.01286040   -0.01286194
     atom   30 type  1   force =    -0.00207265    0.00000101    0.00207192
     atom   31 type  1   force =    -0.00207289    0.00207278    0.00000102

     Total force =     0.063819     Total SCF correction =     0.000103


     Computing stress (Cartesian axis) and pressure

          total   stress  (Ry/bohr**3)                   (kbar)     P=   41.83
   0.00028432  -0.00000000   0.00000000         41.82     -0.00      0.00
  -0.00000000   0.00028432   0.00000000         -0.00     41.83      0.00
   0.00000000   0.00000000   0.00028432          0.00      0.00     41.83


     number of scf cycles    =   3
     number of bfgs steps    =   2

     energy   old            =    -128.2662640477 Ry
     energy   new            =    -128.2739854044 Ry

     CASE: energy  _new < energy  _old

     new trust radius        =       0.0452617965 bohr
     new conv_thr            =       0.0000000129 Ry


ATOMIC_POSITIONS (angstrom)
Al      -0.000000149   0.000000282   0.000000225
Al      -0.000000056   1.982345843   1.982341900
Al       2.057232977   0.000000246   1.920915609
Al       2.057232438   1.920919174   0.000000233
Al       0.000000025   0.000000194   3.978151114
Al      -0.000000046   1.982345957   5.973966254
Al       2.057232931   0.000000255   6.035393075
Al       1.995806277   1.982345179   3.978151485
Al       0.000000052   3.978151028  -0.000000023
Al      -0.000000056   5.973962240   1.982341870
Al       1.995806051   3.978151420   1.982341735
Al       2.057232496   6.035389515   0.000000215
Al       0.000000052   3.978151761   3.978151651
Al      -0.000000051   5.973962171   5.973966300
Al       1.995805963   3.978151440   5.973966449
Al       1.995806286   5.973962915   3.978151496
Al       3.978152233   1.920919821   1.920916462
Al       5.899075017   0.000000244   1.920916421
Al       5.899075554   1.920919957   0.000000237
Al       3.978151611   0.000000266   3.978151425
Al       3.978152220   1.920919866   6.035392230
Al       5.899075066   0.000000254   6.035392266
Al       5.960502271   1.982345096   3.978151473
Al       3.978151588   3.978151517   0.000000205
Al       3.978152237   6.035388896   1.920916384
Al       5.960502495   3.978151431   1.982341671
Al       5.899075493   6.035388722   0.000000222
Al       3.978151946   3.978151007   3.978151091
Al       3.978152229   6.035388838   6.035392324
Al       5.960502585   3.978151451   5.973966515
Al       5.960502262   5.973963013   3.978151485



     Writing output data file Al.save
     NEW-OLD atomic charge density approx. for the potential

     total cpu time spent up to now is    10243.2 secs

     per-process dynamical memory:    92.6 Mb

     Self-consistent Calculation

     iteration #  1     ecut=    40.00 Ry     beta=0.50
     Davidson diagonalization with overlap
     ethr =  1.00E-06,  avg # of iterations =  6.8

     total cpu time spent up to now is    10825.0 secs

     total energy              =    -128.28057792 Ry
     Harris-Foulkes estimate   =    -128.28282205 Ry
     estimated scf accuracy    <       0.00341832 Ry

     iteration #  2     ecut=    40.00 Ry     beta=0.50
     Davidson diagonalization with overlap
     ethr =  3.68E-06,  avg # of iterations =  3.5

     total cpu time spent up to now is    11193.1 secs

     total energy              =    -128.28049839 Ry
     Harris-Foulkes estimate   =    -128.28364849 Ry
     estimated scf accuracy    <       0.01052500 Ry

     iteration #  3     ecut=    40.00 Ry     beta=0.50
     Davidson diagonalization with overlap
     ethr =  3.68E-06,  avg # of iterations =  3.2

     total cpu time spent up to now is    11520.6 secs

     total energy              =    -128.28202192 Ry
     Harris-Foulkes estimate   =    -128.28228160 Ry
     estimated scf accuracy    <       0.00094108 Ry

     iteration #  4     ecut=    40.00 Ry     beta=0.50
     Davidson diagonalization with overlap
     ethr =  1.01E-06,  avg # of iterations =  2.0

     total cpu time spent up to now is    11738.0 secs

     total energy              =    -128.28214521 Ry
     Harris-Foulkes estimate   =    -128.28214610 Ry
     estimated scf accuracy    <       0.00000905 Ry

     iteration #  5     ecut=    40.00 Ry     beta=0.50
     Davidson diagonalization with overlap
     ethr =  9.74E-09,  avg # of iterations =  3.7

     total cpu time spent up to now is    12100.9 secs

     total energy              =    -128.28214902 Ry
     Harris-Foulkes estimate   =    -128.28214962 Ry
     estimated scf accuracy    <       0.00000313 Ry

     iteration #  6     ecut=    40.00 Ry     beta=0.50
     Davidson diagonalization with overlap
     ethr =  3.36E-09,  avg # of iterations =  2.0

     total cpu time spent up to now is    12313.2 secs

     total energy              =    -128.28214927 Ry
     Harris-Foulkes estimate   =    -128.28214930 Ry
     estimated scf accuracy    <       0.00000032 Ry

     iteration #  7     ecut=    40.00 Ry     beta=0.50
     Davidson diagonalization with overlap
     ethr =  3.45E-10,  avg # of iterations =  3.0

     total cpu time spent up to now is    12600.2 secs

     total energy              =    -128.28214934 Ry
     Harris-Foulkes estimate   =    -128.28214935 Ry
     estimated scf accuracy    <       0.00000006 Ry

     iteration #  8     ecut=    40.00 Ry     beta=0.50
     Davidson diagonalization with overlap
     ethr =  6.47E-11,  avg # of iterations =  2.5

     total cpu time spent up to now is    12855.1 secs

     total energy              =    -128.28214934 Ry
     Harris-Foulkes estimate   =    -128.28214935 Ry
     estimated scf accuracy    <       0.00000003 Ry

     iteration #  9     ecut=    40.00 Ry     beta=0.50
     Davidson diagonalization with overlap
     ethr =  3.73E-11,  avg # of iterations =  2.1

     total cpu time spent up to now is    13082.5 secs

     End of self-consistent calculation

     Number of k-points >= 100: set verbosity='high' to print the bands.

     the Fermi energy is     8.0839 ev

!    total energy              =    -128.28214934 Ry
     Harris-Foulkes estimate   =    -128.28214935 Ry
     estimated scf accuracy    <          8.7E-10 Ry

     The total energy is the sum of the following terms:

     one-electron contribution =      88.21698107 Ry
     hartree contribution      =       0.95477616 Ry
     xc contribution           =     -50.19556412 Ry
     ewald contribution        =    -167.25755830 Ry
     smearing contrib. (-TS)   =      -0.00078415 Ry

     convergence has been achieved in   9 iterations

     Forces acting on atoms (cartesian axes, Ry/au):

     atom    1 type  1   force =    -0.00000031   -0.00000027   -0.00000026
     atom    2 type  1   force =    -0.00000020   -0.00039988   -0.00039906
     atom    3 type  1   force =    -0.00800495   -0.00000029    0.00800587
     atom    4 type  1   force =    -0.00800521    0.00800536   -0.00000028
     atom    5 type  1   force =    -0.00000015   -0.00000029    0.00000060
     atom    6 type  1   force =    -0.00000022   -0.00039999    0.00039869
     atom    7 type  1   force =    -0.00800495   -0.00000028   -0.00800624
     atom    8 type  1   force =     0.00039969   -0.00039965    0.00000061
     atom    9 type  1   force =    -0.00000015    0.00000061   -0.00000022
     atom   10 type  1   force =    -0.00000018    0.00039954   -0.00039916
     atom   11 type  1   force =     0.00039983    0.00000062   -0.00039905
     atom   12 type  1   force =    -0.00800526   -0.00800575   -0.00000027
     atom   13 type  1   force =    -0.00000019    0.00000050    0.00000054
     atom   14 type  1   force =    -0.00000020    0.00039965    0.00039878
     atom   15 type  1   force =     0.00039993    0.00000061    0.00039866
     atom   16 type  1   force =     0.00039977    0.00039931    0.00000060
     atom   17 type  1   force =     0.00000050    0.00800482    0.00800566
     atom   18 type  1   force =     0.00800475   -0.00000027    0.00800578
     atom   19 type  1   force =     0.00800501    0.00800528   -0.00000031
     atom   20 type  1   force =     0.00000053   -0.00000025    0.00000070
     atom   21 type  1   force =     0.00000053    0.00800482   -0.00800604
     atom   22 type  1   force =     0.00800474   -0.00000026   -0.00800615
     atom   23 type  1   force =    -0.00040000   -0.00039965    0.00000064
     atom   24 type  1   force =     0.00000053    0.00000066   -0.00000025
     atom   25 type  1   force =     0.00000048   -0.00800521    0.00800569
     atom   26 type  1   force =    -0.00040014    0.00000061   -0.00039905
     atom   27 type  1   force =     0.00800506   -0.00800566   -0.00000029
     atom   28 type  1   force =     0.00000057    0.00000060    0.00000061
     atom   29 type  1   force =     0.00000051   -0.00800520   -0.00800608
     atom   30 type  1   force =    -0.00040024    0.00000059    0.00039866
     atom   31 type  1   force =    -0.00040007    0.00039931    0.00000063

     Total force =     0.039267     Total SCF correction =     0.000031


     Computing stress (Cartesian axis) and pressure

          total   stress  (Ry/bohr**3)                   (kbar)     P=   41.12
   0.00027955   0.00000000  -0.00000000         41.12      0.00     -0.00
   0.00000000   0.00027955  -0.00000000          0.00     41.12     -0.00
  -0.00000000  -0.00000000   0.00027955         -0.00     -0.00     41.12


     number of scf cycles    =   4
     number of bfgs steps    =   3

     energy   old            =    -128.2739854044 Ry
     energy   new            =    -128.2821493445 Ry

     CASE: energy  _new < energy  _old

     new trust radius        =       0.0678926947 bohr
     new conv_thr            =       0.0000000080 Ry


ATOMIC_POSITIONS (angstrom)
Al      -0.000000644  -0.000000086  -0.000000183
Al      -0.000000370   1.979108120   1.979103729
Al       2.031828742  -0.000000131   1.946317469
Al       2.031827341   1.946321468  -0.000000244
Al      -0.000000185  -0.000000294   3.978152851
Al      -0.000000382   1.979108102   5.977202832
Al       2.031828762  -0.000000119   6.009989842
Al       1.999040414   1.979107125   3.978153388
Al      -0.000000165   3.978152689  -0.000000445
Al      -0.000000358   5.977198456   1.979103592
Al       1.999040144   3.978153229   1.979103433
Al       2.031827307   6.009985876  -0.000000249
Al      -0.000000235   3.978153494   3.978153520
Al      -0.000000376   5.977198523   5.977202975
Al       1.999040189   3.978153237   5.977203150
Al       1.999040483   5.977199448   3.978153392
Al       3.978154121   1.946320838   1.946317743
Al       5.924477972  -0.000000123   1.946318343
Al       5.924479369   1.946322313  -0.000000264
Al       3.978153330  -0.000000028   3.978153497
Al       3.978154128   1.946320814   6.009989579
Al       5.924477958  -0.000000109   6.009988971
Al       5.957266799   1.979107042   3.978153397
Al       3.978153314   3.978153385  -0.000000197
Al       3.978154114   6.009986519   1.946317706
Al       5.957267067   3.978153229   1.979103361
Al       5.924479404   6.009985019  -0.000000265
Al       3.978153876   3.978152647   3.978152830
Al       3.978154124   6.009986532   6.009989622
Al       5.957267025   3.978153237   5.977203221
Al       5.957266733   5.977199547   3.978153403



     Writing output data file Al.save
     NEW-OLD atomic charge density approx. for the potential

     total cpu time spent up to now is    13702.1 secs

     per-process dynamical memory:    92.6 Mb

     Self-consistent Calculation

     iteration #  1     ecut=    40.00 Ry     beta=0.50
     Davidson diagonalization with overlap
     ethr =  1.00E-06,  avg # of iterations =  8.6

     total cpu time spent up to now is    14424.5 secs

     total energy              =    -128.28379291 Ry
     Harris-Foulkes estimate   =    -128.28871440 Ry
     estimated scf accuracy    <       0.00747548 Ry

     iteration #  2     ecut=    40.00 Ry     beta=0.50
     Davidson diagonalization with overlap
     ethr =  8.04E-06,  avg # of iterations =  3.6

     total cpu time spent up to now is    14794.9 secs

     total energy              =    -128.28350737 Ry
     Harris-Foulkes estimate   =    -128.29074870 Ry
     estimated scf accuracy    <       0.02468085 Ry

     iteration #  3     ecut=    40.00 Ry     beta=0.50
     Davidson diagonalization with overlap
     ethr =  8.04E-06,  avg # of iterations =  3.2

     total cpu time spent up to now is    15119.9 secs

     total energy              =    -128.28702296 Ry
     Harris-Foulkes estimate   =    -128.28752984 Ry
     estimated scf accuracy    <       0.00179854 Ry

     iteration #  4     ecut=    40.00 Ry     beta=0.50
     Davidson diagonalization with overlap
     ethr =  1.93E-06,  avg # of iterations =  2.0

     total cpu time spent up to now is    15338.6 secs

     total energy              =    -128.28726529 Ry
     Harris-Foulkes estimate   =    -128.28726671 Ry
     estimated scf accuracy    <       0.00001841 Ry

     iteration #  5     ecut=    40.00 Ry     beta=0.50
     Davidson diagonalization with overlap
     ethr =  1.98E-08,  avg # of iterations =  3.8

     total cpu time spent up to now is    15705.1 secs

     total energy              =    -128.28727241 Ry
     Harris-Foulkes estimate   =    -128.28727352 Ry
     estimated scf accuracy    <       0.00000590 Ry

     iteration #  6     ecut=    40.00 Ry     beta=0.50
     Davidson diagonalization with overlap
     ethr =  6.35E-09,  avg # of iterations =  2.0

     total cpu time spent up to now is    15919.3 secs

     total energy              =    -128.28727293 Ry
     Harris-Foulkes estimate   =    -128.28727296 Ry
     estimated scf accuracy    <       0.00000058 Ry

     iteration #  7     ecut=    40.00 Ry     beta=0.50
     Davidson diagonalization with overlap
     ethr =  6.22E-10,  avg # of iterations =  3.1

     total cpu time spent up to now is    16217.3 secs

     total energy              =    -128.28727304 Ry
     Harris-Foulkes estimate   =    -128.28727307 Ry
     estimated scf accuracy    <       0.00000012 Ry

     iteration #  8     ecut=    40.00 Ry     beta=0.50
     Davidson diagonalization with overlap
     ethr =  1.32E-10,  avg # of iterations =  2.5

     total cpu time spent up to now is    16471.2 secs

     total energy              =    -128.28727305 Ry
     Harris-Foulkes estimate   =    -128.28727307 Ry
     estimated scf accuracy    <       0.00000010 Ry

     iteration #  9     ecut=    40.00 Ry     beta=0.50
     Davidson diagonalization with overlap
     ethr =  1.05E-10,  avg # of iterations =  2.0

     total cpu time spent up to now is    16694.2 secs

     End of self-consistent calculation

     Number of k-points >= 100: set verbosity='high' to print the bands.

     the Fermi energy is     8.0838 ev

!    total energy              =    -128.28727306 Ry
     Harris-Foulkes estimate   =    -128.28727306 Ry
     estimated scf accuracy    <          1.1E-09 Ry

     The total energy is the sum of the following terms:

     one-electron contribution =      87.75507571 Ry
     hartree contribution      =       1.17712062 Ry
     xc contribution           =     -50.20908183 Ry
     ewald contribution        =    -167.00969817 Ry
     smearing contrib. (-TS)   =      -0.00068939 Ry

     convergence has been achieved in   9 iterations

     Forces acting on atoms (cartesian axes, Ry/au):

     atom    1 type  1   force =    -0.00000033   -0.00000028   -0.00000031
     atom    2 type  1   force =    -0.00000023    0.00182730    0.00182849
     atom    3 type  1   force =    -0.00113540   -0.00000030    0.00113692
     atom    4 type  1   force =    -0.00113527    0.00113581   -0.00000029
     atom    5 type  1   force =    -0.00000023   -0.00000036    0.00000013
     atom    6 type  1   force =    -0.00000026    0.00182721   -0.00182820
     atom    7 type  1   force =    -0.00113554   -0.00000030   -0.00113677
     atom    8 type  1   force =    -0.00182659    0.00182763    0.00000001
     atom    9 type  1   force =    -0.00000022    0.00000010   -0.00000029
     atom   10 type  1   force =    -0.00000023   -0.00182698    0.00182848
     atom   11 type  1   force =    -0.00182662    0.00000005    0.00182878
     atom   12 type  1   force =    -0.00113533   -0.00113570   -0.00000028
     atom   13 type  1   force =    -0.00000024   -0.00000006   -0.00000007
     atom   14 type  1   force =    -0.00000025   -0.00182689   -0.00182819
     atom   15 type  1   force =    -0.00182653    0.00000004   -0.00182847
     atom   16 type  1   force =    -0.00182656   -0.00182730    0.00000001
     atom   17 type  1   force =    -0.00000018    0.00113565    0.00113668
     atom   18 type  1   force =     0.00113581   -0.00000030    0.00113668
     atom   19 type  1   force =     0.00113566    0.00113557   -0.00000031
     atom   20 type  1   force =    -0.00000005   -0.00000031    0.00000003
     atom   21 type  1   force =    -0.00000015    0.00113579   -0.00113652
     atom   22 type  1   force =     0.00113594   -0.00000029   -0.00113654
     atom   23 type  1   force =     0.00182691    0.00182763    0.00000004
     atom   24 type  1   force =    -0.00000003    0.00000009   -0.00000033
     atom   25 type  1   force =    -0.00000019   -0.00113555    0.00113677
     atom   26 type  1   force =     0.00182691    0.00000004    0.00182878
     atom   27 type  1   force =     0.00113572   -0.00113546   -0.00000031
     atom   28 type  1   force =    -0.00000007    0.00000012    0.00000011
     atom   29 type  1   force =    -0.00000016   -0.00113568   -0.00113661
     atom   30 type  1   force =     0.00182682    0.00000003   -0.00182847
     atom   31 type  1   force =     0.00182687   -0.00182731    0.00000003

     Total force =     0.010542     Total SCF correction =     0.000026


     Computing stress (Cartesian axis) and pressure

          total   stress  (Ry/bohr**3)                   (kbar)     P=   40.99
   0.00027865   0.00000000  -0.00000000         40.99      0.00     -0.00
   0.00000000   0.00027864  -0.00000000          0.00     40.99     -0.00
  -0.00000000  -0.00000000   0.00027864         -0.00     -0.00     40.99


     number of scf cycles    =   5
     number of bfgs steps    =   4

     energy   old            =    -128.2821493445 Ry
     energy   new            =    -128.2872730580 Ry

     CASE: energy  _new < energy  _old

     new trust radius        =       0.0095054043 bohr
     new conv_thr            =       0.0000000018 Ry


ATOMIC_POSITIONS (angstrom)
Al      -0.000000884  -0.000000280  -0.000000399
Al      -0.000000537   1.979776606   1.979772818
Al       2.028272301  -0.000000341   1.949874437
Al       2.028270886   1.949877860  -0.000000452
Al      -0.000000341  -0.000000549   3.978153117
Al      -0.000000566   1.979776523   5.976533729
Al       2.028272248  -0.000000327   6.006432800
Al       1.998371888   1.979775749   3.978153605
Al      -0.000000311   3.978152930  -0.000000652
Al      -0.000000519   5.976529978   1.979772666
Al       1.998371589   3.978153459   1.979772675
Al       2.028270810   6.006429392  -0.000000453
Al      -0.000000403   3.978153659   3.978153690
Al      -0.000000553   5.976530109   5.976533884
Al       1.998371696   3.978153462   5.976533900
Al       1.998371982   5.976530832   3.978153606
Al       3.978154238   1.949877013   1.949874515
Al       5.928034493  -0.000000328   1.949875183
Al       5.928035892   1.949878581  -0.000000489
Al       3.978153498  -0.000000232   3.978153739
Al       3.978154265   1.949877063   6.006432742
Al       5.928034552  -0.000000311   6.006432055
Al       5.957935351   1.979775664   3.978153632
Al       3.978153495   3.978153647  -0.000000422
Al       3.978154226   6.006430250   1.949874529
Al       5.957935637   3.978153453   1.979772603
Al       5.928035970   6.006428661  -0.000000486
Al       3.978154054   3.978152899   3.978153085
Al       3.978154254   6.006430192   6.006432733
Al       5.957935528   3.978153457   5.976533977
Al       5.957935259   5.976530930   3.978153634



     Writing output data file Al.save
     NEW-OLD atomic charge density approx. for the potential

     total cpu time spent up to now is    17310.0 secs

     per-process dynamical memory:    92.6 Mb

     Self-consistent Calculation

     iteration #  1     ecut=    40.00 Ry     beta=0.50
     Davidson diagonalization with overlap
     ethr =  1.00E-06,  avg # of iterations =  3.3

     total cpu time spent up to now is    17585.9 secs

     total energy              =    -128.28736107 Ry
     Harris-Foulkes estimate   =    -128.28746350 Ry
     estimated scf accuracy    <       0.00015138 Ry

     iteration #  2     ecut=    40.00 Ry     beta=0.50
     Davidson diagonalization with overlap
     ethr =  1.63E-07,  avg # of iterations =  3.5

     total cpu time spent up to now is    17934.2 secs

     total energy              =    -128.28734331 Ry
     Harris-Foulkes estimate   =    -128.28753777 Ry
     estimated scf accuracy    <       0.00073339 Ry

     iteration #  3     ecut=    40.00 Ry     beta=0.50
     Davidson diagonalization with overlap
     ethr =  1.63E-07,  avg # of iterations =  3.1

     total cpu time spent up to now is    18238.4 secs

     total energy              =    -128.28743892 Ry
     Harris-Foulkes estimate   =    -128.28744284 Ry
     estimated scf accuracy    <       0.00001375 Ry

     iteration #  4     ecut=    40.00 Ry     beta=0.50
     Davidson diagonalization with overlap
     ethr =  1.48E-08,  avg # of iterations =  2.1

     total cpu time spent up to now is    18471.5 secs

     total energy              =    -128.28744097 Ry
     Harris-Foulkes estimate   =    -128.28744108 Ry
     estimated scf accuracy    <       0.00000054 Ry

     iteration #  5     ecut=    40.00 Ry     beta=0.50
     Davidson diagonalization with overlap
     ethr =  5.85E-10,  avg # of iterations =  3.2

     total cpu time spent up to now is    18798.5 secs

     total energy              =    -128.28744111 Ry
     Harris-Foulkes estimate   =    -128.28744114 Ry
     estimated scf accuracy    <       0.00000014 Ry

     iteration #  6     ecut=    40.00 Ry     beta=0.50
     Davidson diagonalization with overlap
     ethr =  1.48E-10,  avg # of iterations =  2.0

     total cpu time spent up to now is    19010.0 secs

     total energy              =    -128.28744111 Ry
     Harris-Foulkes estimate   =    -128.28744112 Ry
     estimated scf accuracy    <       0.00000004 Ry

     iteration #  7     ecut=    40.00 Ry     beta=0.50
     Davidson diagonalization with overlap
     ethr =  4.09E-11,  avg # of iterations =  2.5

     total cpu time spent up to now is    19264.2 secs

     total energy              =    -128.28744112 Ry
     Harris-Foulkes estimate   =    -128.28744112 Ry
     estimated scf accuracy    <       0.00000001 Ry

     iteration #  8     ecut=    40.00 Ry     beta=0.50
     Davidson diagonalization with overlap
     ethr =  1.56E-11,  avg # of iterations =  2.2

     total cpu time spent up to now is    19504.7 secs

     total energy              =    -128.28744112 Ry
     Harris-Foulkes estimate   =    -128.28744112 Ry
     estimated scf accuracy    <          2.0E-09 Ry

     iteration #  9     ecut=    40.00 Ry     beta=0.50
     Davidson diagonalization with overlap
     ethr =  2.10E-12,  avg # of iterations =  2.3

     total cpu time spent up to now is    19749.9 secs

     End of self-consistent calculation

     Number of k-points >= 100: set verbosity='high' to print the bands.

     the Fermi energy is     8.0838 ev

!    total energy              =    -128.28744112 Ry
     Harris-Foulkes estimate   =    -128.28744112 Ry
     estimated scf accuracy    <          5.3E-11 Ry

     The total energy is the sum of the following terms:

     one-electron contribution =      87.67526564 Ry
     hartree contribution      =       1.21561060 Ry
     xc contribution           =     -50.21154125 Ry
     ewald contribution        =    -166.96611597 Ry
     smearing contrib. (-TS)   =      -0.00066013 Ry

     convergence has been achieved in   9 iterations

     Forces acting on atoms (cartesian axes, Ry/au):

     atom    1 type  1   force =    -0.00000025   -0.00000024   -0.00000025
     atom    2 type  1   force =    -0.00000019    0.00181906    0.00182004
     atom    3 type  1   force =    -0.00026232   -0.00000025    0.00026396
     atom    4 type  1   force =    -0.00026217    0.00026339   -0.00000024
     atom    5 type  1   force =    -0.00000018   -0.00000025    0.00000004
     atom    6 type  1   force =    -0.00000019    0.00181901   -0.00181973
     atom    7 type  1   force =    -0.00026241   -0.00000025   -0.00026379
     atom    8 type  1   force =    -0.00181799    0.00181938   -0.00000004
     atom    9 type  1   force =    -0.00000018    0.00000005   -0.00000024
     atom   10 type  1   force =    -0.00000020   -0.00181876    0.00182001
     atom   11 type  1   force =    -0.00181783   -0.00000002    0.00182012
     atom   12 type  1   force =    -0.00026225   -0.00026323   -0.00000024
     atom   13 type  1   force =    -0.00000021   -0.00000010   -0.00000010
     atom   14 type  1   force =    -0.00000019   -0.00181871   -0.00181970
     atom   15 type  1   force =    -0.00181779   -0.00000002   -0.00181982
     atom   16 type  1   force =    -0.00181794   -0.00181908   -0.00000004
     atom   17 type  1   force =    -0.00000020    0.00026328    0.00026378
     atom   18 type  1   force =     0.00026268   -0.00000025    0.00026375
     atom   19 type  1   force =     0.00026253    0.00026318   -0.00000024
     atom   20 type  1   force =    -0.00000008   -0.00000026   -0.00000003
     atom   21 type  1   force =    -0.00000020    0.00026337   -0.00026362
     atom   22 type  1   force =     0.00026277   -0.00000026   -0.00026357
     atom   23 type  1   force =     0.00181829    0.00181940   -0.00000004
     atom   24 type  1   force =    -0.00000008   -0.00000002   -0.00000024
     atom   25 type  1   force =    -0.00000019   -0.00026312    0.00026388
     atom   26 type  1   force =     0.00181813   -0.00000002    0.00182013
     atom   27 type  1   force =     0.00026261   -0.00026301   -0.00000024
     atom   28 type  1   force =    -0.00000011    0.00000007    0.00000004
     atom   29 type  1   force =    -0.00000020   -0.00026321   -0.00026371
     atom   30 type  1   force =     0.00181808   -0.00000002   -0.00181983
     atom   31 type  1   force =     0.00181823   -0.00181910   -0.00000004

     Total force =     0.009004     Total SCF correction =     0.000006


     Computing stress (Cartesian axis) and pressure

          total   stress  (Ry/bohr**3)                   (kbar)     P=   41.05
   0.00027905  -0.00000000  -0.00000000         41.05     -0.00     -0.00
  -0.00000000   0.00027905   0.00000000         -0.00     41.05      0.00
  -0.00000000   0.00000000   0.00027905         -0.00      0.00     41.05


     number of scf cycles    =   6
     number of bfgs steps    =   5

     energy   old            =    -128.2872730580 Ry
     energy   new            =    -128.2874411178 Ry

     CASE: energy  _new < energy  _old

     new trust radius        =       0.0065420450 bohr
     new conv_thr            =       0.0000000017 Ry


ATOMIC_POSITIONS (angstrom)
Al      -0.000001233  -0.000000594  -0.000000728
Al      -0.000000796   1.981661884   1.981659275
Al       2.025825456  -0.000000670   1.952322972
Al       2.025824162   1.952325595  -0.000000768
Al      -0.000000578  -0.000000902   3.978153306
Al      -0.000000829   1.981661722   5.974647509
Al       2.025825284  -0.000000657   6.003984358
Al       1.996487489   1.981661381   3.978153705
Al      -0.000000549   3.978153118  -0.000000970
Al      -0.000000778   5.974644943   1.981659082
Al       1.996487318   3.978153585   1.981659282
Al       2.025823994   6.003981729  -0.000000769
Al      -0.000000675   3.978153686   3.978153713
Al      -0.000000815   5.974645145   5.974647706
Al       1.996487499   3.978153588   5.974647530
Al       1.996487648   5.974645441   3.978153707
Al       3.978154159   1.952324535   1.952322794
Al       5.930481675  -0.000000657   1.952323466
Al       5.930482946   1.952326072  -0.000000809
Al       3.978153540  -0.000000568   3.978153856
Al       3.978154190   1.952324705   6.003984554
Al       5.930481850  -0.000000642   6.003983861
Al       5.959820002   1.981661308   3.978153737
Al       3.978153548   3.978153796  -0.000000750
Al       3.978154147   6.003982796   1.952322919
Al       5.959820155   3.978153578   1.981659218
Al       5.930483116   6.003981245  -0.000000806
Al       3.978154079   3.978153109   3.978153274
Al       3.978154181   6.003982624   6.003984433
Al       5.959819970   3.978153582   5.974647602
Al       5.959819844   5.974645524   3.978153740



     Writing output data file Al.save
     NEW-OLD atomic charge density approx. for the potential

     total cpu time spent up to now is    20368.2 secs

     per-process dynamical memory:    92.6 Mb

     Self-consistent Calculation

     iteration #  1     ecut=    40.00 Ry     beta=0.50
     Davidson diagonalization with overlap
     ethr =  1.00E-06,  avg # of iterations =  3.2

     total cpu time spent up to now is    20650.8 secs

     total energy              =    -128.28751258 Ry
     Harris-Foulkes estimate   =    -128.28759308 Ry
     estimated scf accuracy    <       0.00011608 Ry

     iteration #  2     ecut=    40.00 Ry     beta=0.50
     Davidson diagonalization with overlap
     ethr =  1.25E-07,  avg # of iterations =  4.0

     total cpu time spent up to now is    21051.1 secs

     total energy              =    -128.28749426 Ry
     Harris-Foulkes estimate   =    -128.28766476 Ry
     estimated scf accuracy    <       0.00066670 Ry

     iteration #  3     ecut=    40.00 Ry     beta=0.50
     Davidson diagonalization with overlap
     ethr =  1.25E-07,  avg # of iterations =  3.2

     total cpu time spent up to now is    21373.5 secs

     total energy              =    -128.28757821 Ry
     Harris-Foulkes estimate   =    -128.28757898 Ry
     estimated scf accuracy    <       0.00000359 Ry

     iteration #  4     ecut=    40.00 Ry     beta=0.50
     Davidson diagonalization with overlap
     ethr =  3.86E-09,  avg # of iterations =  2.8

     total cpu time spent up to now is    21638.1 secs

     total energy              =    -128.28757881 Ry
     Harris-Foulkes estimate   =    -128.28757890 Ry
     estimated scf accuracy    <       0.00000032 Ry

     iteration #  5     ecut=    40.00 Ry     beta=0.50
     Davidson diagonalization with overlap
     ethr =  3.41E-10,  avg # of iterations =  3.2

     total cpu time spent up to now is    21952.8 secs

     total energy              =    -128.28757891 Ry
     Harris-Foulkes estimate   =    -128.28757896 Ry
     estimated scf accuracy    <       0.00000035 Ry

     iteration #  6     ecut=    40.00 Ry     beta=0.50
     Davidson diagonalization with overlap
     ethr =  3.41E-10,  avg # of iterations =  1.0

     total cpu time spent up to now is    22110.2 secs

     total energy              =    -128.28757889 Ry
     Harris-Foulkes estimate   =    -128.28757892 Ry
     estimated scf accuracy    <       0.00000011 Ry

     iteration #  7     ecut=    40.00 Ry     beta=0.50
     Davidson diagonalization with overlap
     ethr =  1.23E-10,  avg # of iterations =  2.9

     total cpu time spent up to now is    22395.4 secs

     total energy              =    -128.28757891 Ry
     Harris-Foulkes estimate   =    -128.28757891 Ry
     estimated scf accuracy    <          8.5E-09 Ry

     iteration #  8     ecut=    40.00 Ry     beta=0.50
     Davidson diagonalization with overlap
     ethr =  9.15E-12,  avg # of iterations =  2.4

     total cpu time spent up to now is    22648.3 secs

     total energy              =    -128.28757891 Ry
     Harris-Foulkes estimate   =    -128.28757891 Ry
     estimated scf accuracy    <          8.7E-09 Ry

     iteration #  9     ecut=    40.00 Ry     beta=0.50
     Davidson diagonalization with overlap
     ethr =  9.15E-12,  avg # of iterations =  1.8

     total cpu time spent up to now is    22871.2 secs

     End of self-consistent calculation

     Number of k-points >= 100: set verbosity='high' to print the bands.

     the Fermi energy is     8.0840 ev

!    total energy              =    -128.28757891 Ry
     Harris-Foulkes estimate   =    -128.28757891 Ry
     estimated scf accuracy    <          5.9E-10 Ry

     The total energy is the sum of the following terms:

     one-electron contribution =      87.61191707 Ry
     hartree contribution      =       1.24628862 Ry
     xc contribution           =     -50.21333258 Ry
     ewald contribution        =    -166.93182712 Ry
     smearing contrib. (-TS)   =      -0.00062490 Ry

     convergence has been achieved in   9 iterations

     Forces acting on atoms (cartesian axes, Ry/au):

     atom    1 type  1   force =    -0.00000009   -0.00000014   -0.00000014
     atom    2 type  1   force =    -0.00000011    0.00140026    0.00140093
     atom    3 type  1   force =     0.00025948   -0.00000014   -0.00025845
     atom    4 type  1   force =     0.00025967   -0.00025885   -0.00000015
     atom    5 type  1   force =    -0.00000011   -0.00000013    0.00000001
     atom    6 type  1   force =    -0.00000010    0.00140023   -0.00140070
     atom    7 type  1   force =     0.00025944   -0.00000013    0.00025854
     atom    8 type  1   force =    -0.00139952    0.00140046   -0.00000004
     atom    9 type  1   force =    -0.00000012    0.00000002   -0.00000014
     atom   10 type  1   force =    -0.00000012   -0.00140002    0.00140088
     atom   11 type  1   force =    -0.00139941   -0.00000004    0.00140096
     atom   12 type  1   force =     0.00025959    0.00025894   -0.00000015
     atom   13 type  1   force =    -0.00000010   -0.00000012   -0.00000009
     atom   14 type  1   force =    -0.00000011   -0.00140002   -0.00140066
     atom   15 type  1   force =    -0.00139940   -0.00000003   -0.00140073
     atom   16 type  1   force =    -0.00139947   -0.00140022   -0.00000003
     atom   17 type  1   force =    -0.00000013   -0.00025886   -0.00025857
     atom   18 type  1   force =    -0.00025925   -0.00000014   -0.00025854
     atom   19 type  1   force =    -0.00025944   -0.00025895   -0.00000013
     atom   20 type  1   force =    -0.00000004   -0.00000016   -0.00000005
     atom   21 type  1   force =    -0.00000015   -0.00025882    0.00025867
     atom   22 type  1   force =    -0.00025921   -0.00000014    0.00025864
     atom   23 type  1   force =     0.00139969    0.00140044   -0.00000005
     atom   24 type  1   force =    -0.00000003   -0.00000008   -0.00000014
     atom   25 type  1   force =    -0.00000014    0.00025896   -0.00025848
     atom   26 type  1   force =     0.00139958   -0.00000003    0.00140094
     atom   27 type  1   force =    -0.00025935    0.00025903   -0.00000013
     atom   28 type  1   force =    -0.00000009    0.00000002    0.00000001
     atom   29 type  1   force =    -0.00000015    0.00025891    0.00025857
     atom   30 type  1   force =     0.00139957   -0.00000002   -0.00140072
     atom   31 type  1   force =     0.00139964   -0.00140021   -0.00000004

     Total force =     0.006976     Total SCF correction =     0.000035


     Computing stress (Cartesian axis) and pressure

          total   stress  (Ry/bohr**3)                   (kbar)     P=   41.10
   0.00027937  -0.00000000  -0.00000000         41.10     -0.00     -0.00
  -0.00000000   0.00027937   0.00000000         -0.00     41.10      0.00
  -0.00000000   0.00000000   0.00027936         -0.00      0.00     41.10


     number of scf cycles    =   7
     number of bfgs steps    =   6

     energy   old            =    -128.2874411178 Ry
     energy   new            =    -128.2875789086 Ry

     CASE: energy  _new < energy  _old

     new trust radius        =       0.0084597286 bohr
     new conv_thr            =       0.0000000014 Ry


ATOMIC_POSITIONS (angstrom)
Al      -0.000001634  -0.000001010  -0.000001153
Al      -0.000001134   1.984826477   1.984825686
Al       2.024523021  -0.000001098   1.953628007
Al       2.024522052   1.953629334  -0.000001189
Al      -0.000000907  -0.000001349   3.978153443
Al      -0.000001164   1.984826209   5.971481588
Al       2.024522684  -0.000001081   6.002679532
Al       1.993324448   1.984826512   3.978153701
Al      -0.000000874   3.978153265  -0.000001386
Al      -0.000001122   5.971480850   1.984825414
Al       1.993324455   3.978153619   1.984825912
Al       2.024521732   6.002678165  -0.000001179
Al      -0.000001015   3.978153540   3.978153586
Al      -0.000001164   5.971481129   5.971481851
Al       1.993324721   3.978153627   5.971481389
Al       1.993324716   5.971480816   3.978153706
Al       3.978153903   1.953628123   1.953627495
Al       5.931784687  -0.000001083   1.953628177
Al       5.931785624   1.953629494  -0.000001219
Al       3.978153497  -0.000001025   3.978153852
Al       3.978153929   1.953628453   6.002680070
Al       5.931785021  -0.000001070   6.002679359
Al       5.962983473   1.984826420   3.978153733
Al       3.978153519   3.978153814  -0.000001180
Al       3.978153883   6.002679392   1.953627803
Al       5.962983445   3.978153616   1.984825831
Al       5.931785950   6.002677995  -0.000001218
Al       3.978153954   3.978153278   3.978153406
Al       3.978153921   6.002679052   6.002679756
Al       5.962983167   3.978153633   5.971481478
Al       5.962983210   5.971480902   3.978153748



     Writing output data file Al.save
     NEW-OLD atomic charge density approx. for the potential

     total cpu time spent up to now is    23491.4 secs

     per-process dynamical memory:    92.6 Mb

     Self-consistent Calculation

     iteration #  1     ecut=    40.00 Ry     beta=0.50
     Davidson diagonalization with overlap
     ethr =  1.00E-06,  avg # of iterations =  3.4

     total cpu time spent up to now is    23791.3 secs

     total energy              =    -128.28760033 Ry
     Harris-Foulkes estimate   =    -128.28772153 Ry
     estimated scf accuracy    <       0.00017411 Ry

     iteration #  2     ecut=    40.00 Ry     beta=0.50
     Davidson diagonalization with overlap
     ethr =  1.87E-07,  avg # of iterations =  3.8

     total cpu time spent up to now is    24168.0 secs

     total energy              =    -128.28757243 Ry
     Harris-Foulkes estimate   =    -128.28783005 Ry
     estimated scf accuracy    <       0.00101464 Ry

     iteration #  3     ecut=    40.00 Ry     beta=0.50
     Davidson diagonalization with overlap
     ethr =  1.87E-07,  avg # of iterations =  3.3

     total cpu time spent up to now is    24492.5 secs

     total energy              =    -128.28769723 Ry
     Harris-Foulkes estimate   =    -128.28769876 Ry
     estimated scf accuracy    <       0.00000585 Ry

     iteration #  4     ecut=    40.00 Ry     beta=0.50
     Davidson diagonalization with overlap
     ethr =  6.29E-09,  avg # of iterations =  2.9

     total cpu time spent up to now is    24767.2 secs

     total energy              =    -128.28769815 Ry
     Harris-Foulkes estimate   =    -128.28769832 Ry
     estimated scf accuracy    <       0.00000059 Ry

     iteration #  5     ecut=    40.00 Ry     beta=0.50
     Davidson diagonalization with overlap
     ethr =  6.30E-10,  avg # of iterations =  3.1

     total cpu time spent up to now is    25076.5 secs

     total energy              =    -128.28769834 Ry
     Harris-Foulkes estimate   =    -128.28769838 Ry
     estimated scf accuracy    <       0.00000040 Ry

     iteration #  6     ecut=    40.00 Ry     beta=0.50
     Davidson diagonalization with overlap
     ethr =  4.30E-10,  avg # of iterations =  1.0

     total cpu time spent up to now is    25233.2 secs

     total energy              =    -128.28769829 Ry
     Harris-Foulkes estimate   =    -128.28769835 Ry
     estimated scf accuracy    <       0.00000020 Ry

     iteration #  7     ecut=    40.00 Ry     beta=0.50
     Davidson diagonalization with overlap
     ethr =  2.17E-10,  avg # of iterations =  2.5

     total cpu time spent up to now is    25495.0 secs

     total energy              =    -128.28769833 Ry
     Harris-Foulkes estimate   =    -128.28769833 Ry
     estimated scf accuracy    <       0.00000001 Ry

     iteration #  8     ecut=    40.00 Ry     beta=0.50
     Davidson diagonalization with overlap
     ethr =  1.35E-11,  avg # of iterations =  2.8

     total cpu time spent up to now is    25769.2 secs

     total energy              =    -128.28769832 Ry
     Harris-Foulkes estimate   =    -128.28769833 Ry
     estimated scf accuracy    <       0.00000001 Ry

     iteration #  9     ecut=    40.00 Ry     beta=0.50
     Davidson diagonalization with overlap
     ethr =  1.35E-11,  avg # of iterations =  2.3

     total cpu time spent up to now is    26014.0 secs

     End of self-consistent calculation

     Number of k-points >= 100: set verbosity='high' to print the bands.

     the Fermi energy is     8.0844 ev

!    total energy              =    -128.28769833 Ry
     Harris-Foulkes estimate   =    -128.28769833 Ry
     estimated scf accuracy    <          1.2E-10 Ry

     The total energy is the sum of the following terms:

     one-electron contribution =      87.56554920 Ry
     hartree contribution      =       1.26887832 Ry
     xc contribution           =     -50.21441752 Ry
     ewald contribution        =    -166.90712341 Ry
     smearing contrib. (-TS)   =      -0.00058491 Ry

     convergence has been achieved in   9 iterations

     Forces acting on atoms (cartesian axes, Ry/au):

     atom    1 type  1   force =     0.00000007   -0.00000004    0.00000004
     atom    2 type  1   force =    -0.00000002    0.00054488    0.00054538
     atom    3 type  1   force =     0.00042450   -0.00000006   -0.00042413
     atom    4 type  1   force =     0.00042464   -0.00042448   -0.00000000
     atom    5 type  1   force =    -0.00000002   -0.00000005   -0.00000002
     atom    6 type  1   force =     0.00000000    0.00054498   -0.00054537
     atom    7 type  1   force =     0.00042461   -0.00000007    0.00042410
     atom    8 type  1   force =    -0.00054467    0.00054499   -0.00000000
     atom    9 type  1   force =    -0.00000006    0.00000010   -0.00000004
     atom   10 type  1   force =    -0.00000001   -0.00054491    0.00054542
     atom   11 type  1   force =    -0.00054461    0.00000006    0.00054538
     atom   12 type  1   force =     0.00042468    0.00042447   -0.00000001
     atom   13 type  1   force =    -0.00000004    0.00000009    0.00000004
     atom   14 type  1   force =    -0.00000000   -0.00054500   -0.00054539
     atom   15 type  1   force =    -0.00054470    0.00000004   -0.00054537
     atom   16 type  1   force =    -0.00054472   -0.00054500   -0.00000001
     atom   17 type  1   force =     0.00000002   -0.00042431   -0.00042405
     atom   18 type  1   force =    -0.00042453   -0.00000008   -0.00042411
     atom   19 type  1   force =    -0.00042464   -0.00042445    0.00000001
     atom   20 type  1   force =     0.00000009   -0.00000006    0.00000003
     atom   21 type  1   force =     0.00000000   -0.00042442    0.00042401
     atom   22 type  1   force =    -0.00042465   -0.00000010    0.00042409
     atom   23 type  1   force =     0.00054464    0.00054500   -0.00000002
     atom   24 type  1   force =     0.00000007    0.00000004    0.00000004
     atom   25 type  1   force =     0.00000003    0.00042432   -0.00042411
     atom   26 type  1   force =     0.00054460    0.00000005    0.00054536
     atom   27 type  1   force =    -0.00042471    0.00042446   -0.00000000
     atom   28 type  1   force =     0.00000003    0.00000005   -0.00000001
     atom   29 type  1   force =     0.00000003    0.00042444    0.00042409
     atom   30 type  1   force =     0.00054469    0.00000005   -0.00054535
     atom   31 type  1   force =     0.00054467   -0.00054498   -0.00000002

     Total force =     0.003384     Total SCF correction =     0.000014


     Computing stress (Cartesian axis) and pressure

          total   stress  (Ry/bohr**3)                   (kbar)     P=   41.13
   0.00027958  -0.00000000  -0.00000000         41.13     -0.00     -0.00
  -0.00000000   0.00027958   0.00000000         -0.00     41.13      0.00
  -0.00000000   0.00000000   0.00027958         -0.00      0.00     41.13


     number of scf cycles    =   8
     number of bfgs steps    =   7

     energy   old            =    -128.2875789086 Ry
     energy   new            =    -128.2876983254 Ry

     CASE: energy  _new < energy  _old

     new trust radius        =       0.0039967510 bohr
     new conv_thr            =       0.0000000010 Ry


ATOMIC_POSITIONS (angstrom)
Al      -0.000001715  -0.000001169  -0.000001258
Al      -0.000001251   1.986321500   1.986321710
Al       2.025170979  -0.000001281   1.952981265
Al       2.025170233   1.952981839  -0.000001313
Al      -0.000001028  -0.000001528   3.978153424
Al      -0.000001271   1.986321268   5.969985782
Al       2.025170662  -0.000001267   6.003326374
Al       1.991830187   1.986321808   3.978153637
Al      -0.000001021   3.978153335  -0.000001537
Al      -0.000001232   5.969986016   1.986321451
Al       1.991830279   3.978153620   1.986322034
Al       2.025169907   6.003325752  -0.000001303
Al      -0.000001152   3.978153511   3.978153511
Al      -0.000001273   5.969986261   5.969986044
Al       1.991830505   3.978153618   5.969985485
Al       1.991830443   5.969985731   3.978153632
Al       3.978153769   1.952980731   1.952980725
Al       5.931136942  -0.000001274   1.952981328
Al       5.931137670   1.952981907  -0.000001333
Al       3.978153492  -0.000001211   3.978153811
Al       3.978153789   1.952981046   6.003326935
Al       5.931137250  -0.000001277   6.003326310
Al       5.964477907   1.986321717   3.978153659
Al       3.978153505   3.978153806  -0.000001283
Al       3.978153758   6.003326890   1.952981038
Al       5.964477805   3.978153609   1.986321942
Al       5.931137983   6.003325693  -0.000001346
Al       3.978153875   3.978153322   3.978153388
Al       3.978153801   6.003326581   6.003326625
Al       5.964477560   3.978153625   5.969985589
Al       5.964477639   5.969985825   3.978153675



     Writing output data file Al.save
     NEW-OLD atomic charge density approx. for the potential

     total cpu time spent up to now is    26630.2 secs

     per-process dynamical memory:    92.6 Mb

     Self-consistent Calculation

     iteration #  1     ecut=    40.00 Ry     beta=0.50
     Davidson diagonalization with overlap
     ethr =  1.00E-06,  avg # of iterations =  2.0

     Threshold (ethr) on eigenvalues was too large:
     Diagonalizing with lowered threshold

     Davidson diagonalization with overlap
     ethr =  1.61E-08,  avg # of iterations =  4.4

     total cpu time spent up to now is    27157.5 secs

     total energy              =    -128.28771203 Ry
     Harris-Foulkes estimate   =    -128.28773519 Ry
     estimated scf accuracy    <       0.00003473 Ry

     iteration #  2     ecut=    40.00 Ry     beta=0.50
     Davidson diagonalization with overlap
     ethr =  3.73E-08,  avg # of iterations =  3.2

     total cpu time spent up to now is    27478.0 secs

     total energy              =    -128.28771124 Ry
     Harris-Foulkes estimate   =    -128.28774383 Ry
     estimated scf accuracy    <       0.00010919 Ry

     iteration #  3     ecut=    40.00 Ry     beta=0.50
     Davidson diagonalization with overlap
     ethr =  3.73E-08,  avg # of iterations =  3.0

     total cpu time spent up to now is    27785.1 secs

     total energy              =    -128.28772706 Ry
     Harris-Foulkes estimate   =    -128.28772950 Ry
     estimated scf accuracy    <       0.00000868 Ry

     iteration #  4     ecut=    40.00 Ry     beta=0.50
     Davidson diagonalization with overlap
     ethr =  9.33E-09,  avg # of iterations =  2.1

     total cpu time spent up to now is    28006.6 secs

     total energy              =    -128.28772821 Ry
     Harris-Foulkes estimate   =    -128.28772821 Ry
     estimated scf accuracy    <       0.00000005 Ry

     iteration #  5     ecut=    40.00 Ry     beta=0.50
     Davidson diagonalization with overlap
     ethr =  5.64E-11,  avg # of iterations =  4.1

     total cpu time spent up to now is    28402.0 secs

     total energy              =    -128.28772823 Ry
     Harris-Foulkes estimate   =    -128.28772824 Ry
     estimated scf accuracy    <       0.00000002 Ry

     iteration #  6     ecut=    40.00 Ry     beta=0.50
     Davidson diagonalization with overlap
     ethr =  1.81E-11,  avg # of iterations =  2.7

     total cpu time spent up to now is    28675.8 secs

     total energy              =    -128.28772824 Ry
     Harris-Foulkes estimate   =    -128.28772824 Ry
     estimated scf accuracy    <          6.5E-09 Ry

     iteration #  7     ecut=    40.00 Ry     beta=0.50
     Davidson diagonalization with overlap
     ethr =  6.99E-12,  avg # of iterations =  2.2

     total cpu time spent up to now is    28906.4 secs

     total energy              =    -128.28772824 Ry
     Harris-Foulkes estimate   =    -128.28772824 Ry
     estimated scf accuracy    <          2.0E-09 Ry

     iteration #  8     ecut=    40.00 Ry     beta=0.50
     Davidson diagonalization with overlap
     ethr =  2.12E-12,  avg # of iterations =  2.0

     total cpu time spent up to now is    29123.7 secs

     End of self-consistent calculation

     Number of k-points >= 100: set verbosity='high' to print the bands.

     the Fermi energy is     8.0845 ev

!    total energy              =    -128.28772824 Ry
     Harris-Foulkes estimate   =    -128.28772824 Ry
     estimated scf accuracy    <          1.7E-10 Ry

     The total energy is the sum of the following terms:

     one-electron contribution =      87.57162301 Ry
     hartree contribution      =       1.26608203 Ry
     xc contribution           =     -50.21404587 Ry
     ewald contribution        =    -166.91081389 Ry
     smearing contrib. (-TS)   =      -0.00057352 Ry

     convergence has been achieved in   8 iterations

     Forces acting on atoms (cartesian axes, Ry/au):

     atom    1 type  1   force =     0.00000013    0.00000003    0.00000005
     atom    2 type  1   force =     0.00000006    0.00007407    0.00007423
     atom    3 type  1   force =     0.00018330    0.00000002   -0.00018323
     atom    4 type  1   force =     0.00018343   -0.00018339    0.00000003
     atom    5 type  1   force =     0.00000002    0.00000003    0.00000005
     atom    6 type  1   force =     0.00000006    0.00007411   -0.00007431
     atom    7 type  1   force =     0.00018337    0.00000002    0.00018316
     atom    8 type  1   force =    -0.00007395    0.00007402    0.00000004
     atom    9 type  1   force =     0.00000002    0.00000005    0.00000006
     atom   10 type  1   force =     0.00000005   -0.00007415    0.00007428
     atom   11 type  1   force =    -0.00007396    0.00000004    0.00007415
     atom   12 type  1   force =     0.00018351    0.00018333    0.00000003
     atom   13 type  1   force =     0.00000003    0.00000009    0.00000008
     atom   14 type  1   force =     0.00000006   -0.00007418   -0.00007437
     atom   15 type  1   force =    -0.00007400    0.00000004   -0.00007424
     atom   16 type  1   force =    -0.00007401   -0.00007410    0.00000004
     atom   17 type  1   force =     0.00000006   -0.00018324   -0.00018317
     atom   18 type  1   force =    -0.00018341    0.00000002   -0.00018318
     atom   19 type  1   force =    -0.00018353   -0.00018333    0.00000004
     atom   20 type  1   force =     0.00000010    0.00000004    0.00000003
     atom   21 type  1   force =     0.00000005   -0.00018330    0.00018310
     atom   22 type  1   force =    -0.00018348    0.00000002    0.00018311
     atom   23 type  1   force =     0.00007383    0.00007401    0.00000003
     atom   24 type  1   force =     0.00000010    0.00000005    0.00000004
     atom   25 type  1   force =     0.00000006    0.00018317   -0.00018325
     atom   26 type  1   force =     0.00007385    0.00000004    0.00007415
     atom   27 type  1   force =    -0.00018361    0.00018327    0.00000005
     atom   28 type  1   force =     0.00000006    0.00000006    0.00000004
     atom   29 type  1   force =     0.00000004    0.00018324    0.00018318
     atom   30 type  1   force =     0.00007389    0.00000004   -0.00007423
     atom   31 type  1   force =     0.00007389   -0.00007409    0.00000003

     Total force =     0.000969     Total SCF correction =     0.000017


     Computing stress (Cartesian axis) and pressure

          total   stress  (Ry/bohr**3)                   (kbar)     P=   41.12
   0.00027952   0.00000000   0.00000000         41.12      0.00      0.00
   0.00000000   0.00027952   0.00000000          0.00     41.12      0.00
   0.00000000   0.00000000   0.00027952          0.00      0.00     41.12


     bfgs converged in   9 scf cycles and   8 bfgs steps
     (criteria: energy <  1.0E-04 Ry, force <  1.0E-03 Ry/Bohr)

     End of BFGS Geometry Optimization

     Final energy   =    -128.2877282380 Ry
Begin final coordinates

ATOMIC_POSITIONS (angstrom)
Al      -0.000001715  -0.000001169  -0.000001258
Al      -0.000001251   1.986321500   1.986321710
Al       2.025170979  -0.000001281   1.952981265
Al       2.025170233   1.952981839  -0.000001313
Al      -0.000001028  -0.000001528   3.978153424
Al      -0.000001271   1.986321268   5.969985782
Al       2.025170662  -0.000001267   6.003326374
Al       1.991830187   1.986321808   3.978153637
Al      -0.000001021   3.978153335  -0.000001537
Al      -0.000001232   5.969986016   1.986321451
Al       1.991830279   3.978153620   1.986322034
Al       2.025169907   6.003325752  -0.000001303
Al      -0.000001152   3.978153511   3.978153511
Al      -0.000001273   5.969986261   5.969986044
Al       1.991830505   3.978153618   5.969985485
Al       1.991830443   5.969985731   3.978153632
Al       3.978153769   1.952980731   1.952980725
Al       5.931136942  -0.000001274   1.952981328
Al       5.931137670   1.952981907  -0.000001333
Al       3.978153492  -0.000001211   3.978153811
Al       3.978153789   1.952981046   6.003326935
Al       5.931137250  -0.000001277   6.003326310
Al       5.964477907   1.986321717   3.978153659
Al       3.978153505   3.978153806  -0.000001283
Al       3.978153758   6.003326890   1.952981038
Al       5.964477805   3.978153609   1.986321942
Al       5.931137983   6.003325693  -0.000001346
Al       3.978153875   3.978153322   3.978153388
Al       3.978153801   6.003326581   6.003326625
Al       5.964477560   3.978153625   5.969985589
Al       5.964477639   5.969985825   3.978153675
End final coordinates



     Writing output data file Al.save

     init_run     :    168.97s CPU    383.05s WALL (       1 calls)
     electrons    :  13894.25s CPU  23794.41s WALL (       9 calls)
     update_pot   :      0.48s CPU      0.59s WALL (       8 calls)
     forces       :     31.47s CPU     31.59s WALL (       9 calls)
     stress       :   2177.25s CPU   5516.22s WALL (       9 calls)

     Called by init_run:
     wfcinit      :    168.74s CPU    381.25s WALL (       1 calls)
     potinit      :      0.12s CPU      0.26s WALL (       1 calls)

     Called by electrons:
     c_bands      :  13207.19s CPU  22895.81s WALL (      81 calls)
     sum_band     :    683.90s CPU    894.06s WALL (      81 calls)
     v_of_rho     :      1.23s CPU      1.73s WALL (      88 calls)
     mix_rho      :      1.77s CPU      2.53s WALL (      81 calls)

     Called by c_bands:
     init_us_2    :     15.22s CPU     17.32s WALL (   31132 calls)
     cegterg      :  12634.71s CPU  21954.72s WALL (   13932 calls)

     Called by sum_band:

     Called by *egterg:
     h_psi        :   6692.49s CPU  10385.33s WALL (   55237 calls)
     g_psi        :      6.69s CPU      6.66s WALL (   41133 calls)
     cdiaghg      :   4605.83s CPU   9494.85s WALL (   53345 calls)

     Called by h_psi:
     h_psi:pot    :   6688.71s CPU  10381.06s WALL (   55237 calls)
     h_psi:calbec :    466.71s CPU   1403.53s WALL (   55237 calls)
     vloc_psi     :   6094.88s CPU   8821.89s WALL (   55237 calls)
     add_vuspsi   :    126.68s CPU    155.09s WALL (   55237 calls)

     General routines
     calbec       :   1353.77s CPU   3153.88s WALL (   62977 calls)
     fft          :      4.49s CPU     11.47s WALL (    1043 calls)
     fftw         :   6716.86s CPU   9649.29s WALL ( 4970252 calls)
     davcio       :      0.00s CPU      0.02s WALL (     172 calls)

     Parallel routines
     fft_scatter  :   6340.14s CPU   9262.56s WALL ( 4971295 calls)

     PWSCF        :     4h31m CPU        8h15m WALL


   This run was terminated on:  22:59:21  30Sep2018            

=------------------------------------------------------------------------------=
   JOB DONE.
=------------------------------------------------------------------------------=
