LAMMPS (3 Mar 2020)
Reading data file ...
  triclinic box = (0 0 0) to (100 100 100) with tilt (0 0 0)
  1 by 1 by 1 MPI processor grid
  reading atoms ...
  4 atoms
  read_data CPU = 0.006794 secs
Reading potential file beta.txt with DATE: Sun
WARNING: No fixes defined, atoms won't move (../verlet.cpp:52)
ERROR: Pair style requires newton pair on (../pair_flare.cpp:224)
Last command: run 0
