24
Lattice="6.1372475706660055 0.0 0.0 -3.068623785333005 5.31501230542229 0.0 -0.0 0.0 7.5161284294043975" Properties=species:S:1:pos:R:3:momenta:R:3:forces:R:3 energy=0.0 pbc="T T T"
Si       1.46053005       0.89817457       5.07025237      -0.11445730       0.89769066      -0.28377355      -0.00003730       0.00002253      -0.00054508
Si      -0.06854230       1.72847590       2.56624837      -0.15665155      -0.22315828      -0.07286221       0.00007290      -0.00003957      -0.00065825
Si      -0.01029088      -0.05105221       7.62683014       0.55670457      -0.55679285      -1.59374488      -0.00003560       0.00001705      -0.00061295
C       -0.07420328       0.04679894       5.62115315      -0.04068472      -0.50651745       1.01595255       0.00003559      -0.00002159       0.00060215
C        1.48168106       0.93765803       3.14713599      -0.49977837       0.16220458       0.96191360      -0.00007183       0.00003904       0.00057972
C       -0.00545364       1.83375404       0.67251449       0.20412209       0.12019479      -0.34343726       0.00003624      -0.00001746       0.00063442
Si      -0.06307803       3.50499081       5.00485604      -0.66273867       1.97838824      -1.28721721      -0.00003730       0.00002253      -0.00054508
Si      -1.50073662       4.49931772       2.53916745      -0.07351302      -0.99685781       0.42086121       0.00007290      -0.00003957      -0.00065825
Si      -1.50637539       2.72267128       7.61169984       0.09103989      -0.26563079       0.14728008      -0.00003560       0.00001705      -0.00061295
C       -1.49577598       2.61349805       5.72834954       0.14879459       0.26507603       0.49189356       0.00003559      -0.00002159       0.00060215
C        0.02111971       3.55227718       3.24090816       0.19331754       0.16524695       0.55113574      -0.00007183       0.00003904       0.00057972
C       -1.50772819       4.51118662       0.66882551       0.40617860      -0.13192202       0.23642466       0.00003624      -0.00001746       0.00063442
Si       4.70672413       0.80724883       5.03388912      -0.65231458      -0.48511980       0.69660564      -0.00003730       0.00002253      -0.00054508
Si       3.14275754       1.69279765       2.50975616       1.15200167      -0.63587803      -0.19305140       0.00007290      -0.00003957      -0.00065825
Si       2.98582208       0.05535089       7.59302784      -0.82928498      -0.30839273      -0.18686128      -0.00003560       0.00001705      -0.00061295
C        3.13481695      -0.01991624       5.59889572       0.13414565       0.07606874       0.41424025       0.00003559      -0.00002159       0.00060215
C        4.67796587       0.87353732       3.13813018       0.22503150      -0.30992564       0.74388654      -0.00007183       0.00003904       0.00057972
C        3.17865168       1.76905022       0.69552634       0.01827326       0.45346580       0.38135738       0.00003624      -0.00001746       0.00063442
Si       3.14087548       3.48267224       5.01211385       1.16874026       0.06700766      -2.28432758      -0.00003730       0.00002253      -0.00054508
Si       1.58500083       4.45497022       2.51774156      -0.47800960       0.50182939      -0.79822198       0.00007290      -0.00003957      -0.00065825
Si       1.49551742       2.71750769       7.56907482       0.38835693      -0.67623632       0.04321211      -0.00003560       0.00001705      -0.00061295
C        1.54390744       2.67335578       5.62377133      -0.00462540      -0.24935133       0.37465510       0.00003559      -0.00002159       0.00060215
C        2.99443748       3.55482651       3.15130183      -0.72704749       0.83812695      -0.03897585      -0.00007183       0.00003904       0.00057972
C        1.62299223       4.39006392       0.71705779      -0.44760086      -0.17951674       0.60305480       0.00003624      -0.00001746       0.00063442
