24
Lattice="6.1372475706660055 0.0 0.0 -3.068623785333005 5.31501230542229 0.0 -0.0 0.0 7.5161284294043975" Properties=species:S:1:pos:R:3:momenta:R:3:forces:R:3 energy=0.0 pbc="T T T"
Si       1.46053005       0.89817457       5.07025237       0.00000000       0.00000000       0.00000000      -0.00003730       0.00002253      -0.00054508
Si      -0.06854230       1.72847590       2.56624837       0.00000000       0.00000000       0.00000000       0.00007290      -0.00003957      -0.00065825
Si      -0.01029088      -0.05105221       7.62683014       0.00000000       0.00000000       0.00000000      -0.00003560       0.00001705      -0.00061295
C       -0.07420328       0.04679894       5.62115315       0.00000000       0.00000000       0.00000000       0.00003559      -0.00002159       0.00060215
C        1.48168106       0.93765803       3.14713599       0.00000000       0.00000000       0.00000000      -0.00007183       0.00003904       0.00057972
C       -0.00545364       1.83375404       0.67251449       0.00000000       0.00000000       0.00000000       0.00003624      -0.00001746       0.00063442
Si      -0.06307803       3.50499081       5.00485604       0.00000000       0.00000000       0.00000000      -0.00003730       0.00002253      -0.00054508
Si      -1.50073662       4.49931772       2.53916745       0.00000000       0.00000000       0.00000000       0.00007290      -0.00003957      -0.00065825
Si      -1.50637539       2.72267128       7.61169984       0.00000000       0.00000000       0.00000000      -0.00003560       0.00001705      -0.00061295
C       -1.49577598       2.61349805       5.72834954       0.00000000       0.00000000       0.00000000       0.00003559      -0.00002159       0.00060215
C        0.02111971       3.55227718       3.24090816       0.00000000       0.00000000       0.00000000      -0.00007183       0.00003904       0.00057972
C       -1.50772819       4.51118662       0.66882551       0.00000000       0.00000000       0.00000000       0.00003624      -0.00001746       0.00063442
Si       4.70672413       0.80724883       5.03388912       0.00000000       0.00000000       0.00000000      -0.00003730       0.00002253      -0.00054508
Si       3.14275754       1.69279765       2.50975616       0.00000000       0.00000000       0.00000000       0.00007290      -0.00003957      -0.00065825
Si       2.98582208       0.05535089       7.59302784       0.00000000       0.00000000       0.00000000      -0.00003560       0.00001705      -0.00061295
C        3.13481695      -0.01991624       5.59889572       0.00000000       0.00000000       0.00000000       0.00003559      -0.00002159       0.00060215
C        4.67796587       0.87353732       3.13813018       0.00000000       0.00000000       0.00000000      -0.00007183       0.00003904       0.00057972
C        3.17865168       1.76905022       0.69552634       0.00000000       0.00000000       0.00000000       0.00003624      -0.00001746       0.00063442
Si       3.14087548       3.48267224       5.01211385       0.00000000       0.00000000       0.00000000      -0.00003730       0.00002253      -0.00054508
Si       1.58500083       4.45497022       2.51774156       0.00000000       0.00000000       0.00000000       0.00007290      -0.00003957      -0.00065825
Si       1.49551742       2.71750769       7.56907482       0.00000000       0.00000000       0.00000000      -0.00003560       0.00001705      -0.00061295
C        1.54390744       2.67335578       5.62377133       0.00000000       0.00000000       0.00000000       0.00003559      -0.00002159       0.00060215
C        2.99443748       3.55482651       3.15130183       0.00000000       0.00000000       0.00000000      -0.00007183       0.00003904       0.00057972
C        1.62299223       4.39006392       0.71705779       0.00000000       0.00000000       0.00000000       0.00003624      -0.00001746       0.00063442
