24
Lattice="6.1372475706660055 0.0 0.0 -3.068623785333005 5.31501230542229 0.0 -0.0 0.0 7.5161284294043975" Properties=species:S:1:pos:R:3:momenta:R:3:forces:R:3 energy=-133.6253978374939 stress="-0.44306272378727346 -0.020825433226042765 0.02583631952875337 -0.020825433226042765 -0.41582964838919606 0.01993157458709271 0.02583631952875337 0.01993157458709271 -0.36695760987680365" free_energy=-133.6253978374939 pbc="T T T"
Si       1.54702873       0.98274344       5.13899264      -0.11445730       0.89769066      -0.28377355       6.16111857     -15.95060162      -7.23993718
Si      -0.01749131       1.81787682       2.64914507      -0.15665155      -0.22315828      -0.07286221       7.05493086      -1.41629463     -14.61861593
Si       0.04230820      -0.14177139       7.64363498       0.55670457      -0.55679285      -1.59374488      -7.64592340      12.44755242     -10.59702543
C       -0.13877252       0.07065990       5.52627721      -0.04068472      -0.50651745       1.01595255       9.92571913      -4.85984010       6.10736199
C        1.52324377       0.90127104       3.14739939      -0.49977837       0.16220458       0.96191360       1.04534249       0.27541338       2.50122527
C        0.07197115       1.73756297       0.74107179       0.20412209       0.12019479      -0.34343726      -1.07035418       0.37522790      -0.47981080
Si       0.00321219       3.50166672       4.91297315      -0.66273867       1.97838824      -1.28721721       6.86723129       7.60132641      21.60488009
Si      -1.49719628       4.44336499       2.62113828      -0.07351302      -0.99685781       0.42086121      -7.23747018       2.99055593      -5.07369987
Si      -1.44792770       2.80391547       7.64302355       0.09103989      -0.26563079       0.14728008       0.09614259     -17.17948097      -4.10739612
C       -1.54631705       2.62471631       5.64578220       0.14879459       0.26507603       0.49189356       2.91965451       0.68783539       1.90145722
C       -0.00463525       3.56706579       3.29050198       0.19331754       0.16524695       0.55113574       1.62751097       1.36728327     -10.38031042
C       -1.53849350       4.46868007       0.70100408       0.40617860      -0.13192202       0.23642466       0.37032478      -0.49234984       5.28513205
Si       4.74080090       0.89950600       5.01402115      -0.65231458      -0.48511980       0.69660564     -22.95004410      -5.19931555       4.11528711
Si       3.08655707       1.75562226       2.59672898       1.15200167      -0.63587803      -0.19305140       0.05253720       0.19467838      -0.94771328
Si       2.94408034      -0.00432375       7.63446171      -0.82928498      -0.30839273      -0.18686128      17.39814731       4.09420046      -4.92169920
C        3.11546718      -0.09744283       5.59027501       0.13414565       0.07606874       0.41424025       0.01204266       2.46837192       1.29820883
C        4.73355781       0.82950316       3.10696699       0.22503150      -0.30992564       0.74388654      -4.59338234       0.47600177       1.80329700
C        3.09188328       1.74428613       0.72894323       0.01827326       0.45346580       0.38135738       0.01627216       1.51908400      -0.52149680
Si       3.15375354       3.46013771       5.08371361       1.16874026       0.06700766      -2.28432758      -0.77145725       8.21742821      -4.06433323
Si       1.62109307       4.41576095       2.53090508      -0.47800960       0.50182939      -0.79822198      -9.70233580      -0.80320197       4.94494898
Si       1.55561207       2.62203212       7.47027720       0.38835693      -0.67623632       0.04321211      -1.85077282       5.00720214       8.96231003
C        1.62926449       2.67645024       5.63654978      -0.00462540      -0.24935133       0.37465510      -1.98764244       2.36938908      -0.05011743
C        2.93570710       3.58811266       3.09621509      -0.72704749       0.83812695      -0.03897585       7.37859227      -3.20503729       3.46384402
C        1.59296542       4.38934524       0.63078885      -0.44760086      -0.17951674       0.60305480      -3.11618428      -0.98542868       1.01420311
24
Lattice="6.1372475706660055 0.0 0.0 -3.068623785333005 5.31501230542229 0.0 -0.0 0.0 7.5161284294043975" Properties=species:S:1:pos:R:3:momenta:R:3:forces:R:3 energy=-133.6523998814124 stress="-0.6453182391563655 -0.08491790578125967 0.12141489570104605 -0.08491790578125967 -0.38080636633260834 0.09117101334927817 0.12141489570104605 0.09117101334927817 -0.5034059190469949" free_energy=-133.6523998814124 pbc="T T T"
Si       1.44594896       0.81179790       5.06646993      -0.11445730       0.89769066      -0.28377355      11.76771402       8.01195690       2.74675978
Si      -0.10871917       1.65111474       2.54625580      -0.15665155      -0.22315828      -0.07286221      14.75202493      18.11560819       1.90205159
Si      -0.10080543      -0.11587391       7.71118343       0.55670457      -0.55679285      -1.59374488      15.62668527      14.33167464     -16.72156089
C       -0.00432676       0.09773431       5.66555340      -0.04068472      -0.50651745       1.01595255      -1.67776184      -5.93359153       2.65161707
C        1.41638125       1.02997931       3.22082385      -0.49977837       0.16220458       0.96191360       0.22770990      -3.11913570       0.78645033
C       -0.07866185       1.92317544       0.71679886       0.20412209       0.12019479      -0.34343726       1.59785708      -4.94136776      -0.12219692
Si      -0.02080535       3.55102433       4.96035220      -0.66273867       1.97838824      -1.28721721      -1.49219976      -3.58499608      14.11532900
Si      -1.47340479       4.53740636       2.59742515      -0.07351302      -0.99685781       0.42086121      -8.67812778      -9.83947284      -2.48212370
Si      -1.51967212       2.71919602       7.69995124       0.09103989      -0.26563079       0.14728008     -10.55799655       2.86889083      -8.39149990
C       -1.53946814       2.60468472       5.75943837       0.14879459       0.26507603       0.49189356       0.68307415       0.94834252      -0.78447057
C       -0.07014156       3.46929946       3.19972062       0.19331754       0.16524695       0.55113574       1.14220750       0.18930209      -2.72761083
C       -1.44875198       4.58830537       0.70388125       0.40617860      -0.13192202       0.23642466      -6.53305704      -5.54600191       2.55070693
Si       4.64623511       0.86174745       5.03250229      -0.65231458      -0.48511980       0.69660564     -13.81824779      -0.65673418       4.09700154
Si       3.04844138       1.61464989       2.51531576       1.15200167      -0.63587803      -0.19305140      -3.16394067      13.19321588       5.69229360
Si       2.92802716       0.09310714       7.65407011      -0.82928498      -0.30839273      -0.18686128      11.38445838      -0.38109054     -16.39559668
C        3.04198620       0.06893494       5.52762706       0.13414565       0.07606874       0.41424025       0.34554987      -2.45588838       3.58159690
C        4.62682597       0.92290288       3.07175253       0.22503150      -0.30992564       0.74388654      -3.59472302      -4.37480899       5.02106031
C        3.25490509       1.80039648       0.72073684       0.01827326       0.45346580       0.38135738      -5.99617995       2.23659074      -1.16105427
Si       3.07291953       3.40492826       5.03479069       1.16874026       0.06700766      -2.28432758      -0.76448271       4.67742281       1.62198000
Si       1.51147481       4.41173838       2.60553632      -0.47800960       0.50182939      -0.79822198      -0.54936370     -12.61529299       0.58858664
Si       1.40054730       2.68800783       7.52587673       0.38835693      -0.67623632       0.04321211      10.35691330      -6.02319647      -1.48333194
C        1.49046185       2.73684269       5.60625404      -0.00462540      -0.24935133       0.37465510      -0.52565117      -3.44493095       1.50230500
C        3.04759731       3.47591732       3.21591257      -0.72704749       0.83812695      -0.03897585       0.90687727       0.11689973      -1.63188871
C        1.68701397       4.36787829       0.62197549      -0.44760086      -0.17951674       0.60305480     -11.43933971      -1.77339599       5.04359573
24
Lattice="6.1372475706660055 0.0 0.0 -3.068623785333005 5.31501230542229 0.0 -0.0 0.0 7.5161284294043975" Properties=species:S:1:pos:R:3:momenta:R:3:forces:R:3 energy=-133.9560889854642 stress="-0.571843037427134 -0.030535173039527373 0.022470713368240556 -0.030535173039527373 -0.330000240370255 -0.057001544632438665 0.022470713368240556 -0.057001544632438665 -0.47238113662874165" free_energy=-133.9560889854642 pbc="T T T"
Si       1.51050095       0.82355119       4.97960524      -0.11445730       0.89769066      -0.28377355      13.70210077       1.62015851       1.70542814
Si      -0.08259357       1.65132198       2.58590274      -0.15665155      -0.22315828      -0.07286221      13.75928253      12.21442733       2.22117283
Si       0.04213808       0.04365304       7.67708646       0.55670457      -0.55679285      -1.59374488      -1.80112048      -0.93186091     -17.02492535
C       -0.09806444       0.11344620       5.59353463      -0.04068472      -0.50651745       1.01595255      10.79319526      -9.37496791       6.15998576
C        1.57998171       0.86049406       3.16375896      -0.49977837       0.16220458       0.96191360      -0.70958751       0.31757258      -0.52000102
C       -0.03714608       1.81919524       0.73605788       0.20412209       0.12019479      -0.34343726       1.53045392       0.41031731      -0.74077630
Si      -0.11633741       3.43714047       4.97175296      -0.66273867       1.97838824      -1.28721721      10.85178273       5.78360993       8.87874537
Si      -1.40143352       4.46999141       2.46088824      -0.07351302      -0.99685781       0.42086121      -9.02994827      -7.73046785      18.27362504
Si      -1.54010668       2.66263714       7.62894346       0.09103989      -0.26563079       0.14728008       1.69804263       0.14203103      -6.42355409
C       -1.52120398       2.61056560       5.80701689       0.14879459       0.26507603       0.49189356      -0.97712071      -2.36699741      -2.11015427
C        0.00684872       3.55957163       3.32781727       0.19331754       0.16524695       0.55113574       0.16859103      -2.05638098      -8.10662150
C       -1.52415921       4.51350124       0.73329724       0.40617860      -0.13192202       0.23642466      -1.12275579      -3.22583847      -4.07797190
Si       4.71686002       0.74737358       5.12453359      -0.65231458      -0.48511980       0.69660564     -23.32252898       6.87532216      -5.13555710
Si       3.18382488       1.67147268       2.52321641       1.15200167      -0.63587803      -0.19305140     -12.39548601      13.61255391       4.47012929
Si       3.03905300      -0.00213189       7.63782090      -0.82928498      -0.30839273      -0.18686128       5.64311799      -3.49485786     -15.66577749
C        3.14840481      -0.08269468       5.66773616       0.13414565       0.07606874       0.41424025      -2.29773494      -0.06185768       0.95129567
C        4.61343526       0.83635634       3.12670319       0.22503150      -0.30992564       0.74388654      -0.22573031       0.70641427       6.61799636
C        3.10509434       1.66989736       0.63612048       0.01827326       0.45346580       0.38135738      -0.95906439       4.36502676       1.49125551
Si       3.11566199       3.38765231       4.93126507       1.16874026       0.06700766      -2.28432758      -8.66816847       5.81542495       5.36997950
Si       1.54937288       4.52550148       2.53521048      -0.47800960       0.50182939      -0.79822198       2.57554279     -18.85644287       7.23174137
Si       1.56398903       2.72718717       7.65051585       0.38835693      -0.67623632       0.04321211      -0.48501958      -1.90091748      -1.73010395
C        1.49143821       2.69550592       5.53920853      -0.00462540      -0.24935133       0.37465510       0.38370674      -2.69703197       2.85236361
C        3.07982397       3.50949356       3.08832201      -0.72704749       0.83812695      -0.03897585       1.59722928       0.43771097      -0.55634743
C        1.57857836       4.45072595       0.79626630      -0.44760086      -0.17951674       0.60305480      -0.70878023       0.39705167      -4.13192806
24
Lattice="6.1372475706660055 0.0 0.0 -3.068623785333005 5.31501230542229 0.0 -0.0 0.0 7.5161284294043975" Properties=species:S:1:pos:R:3:momenta:R:3:forces:R:3 energy=-131.3846232779833 stress="-0.5452352955452688 -0.018415908290452625 0.029002436393649463 -0.018415908290452625 -0.4670887607624431 0.06516771864782743 0.029002436393649463 0.06516771864782743 -0.4783805278611474" free_energy=-131.3846232779833 pbc="T T T"
Si       1.37051603       0.87227749       5.13329208      -0.11445730       0.89769066      -0.28377355       8.64383317       6.26473837      -5.81364244
Si      -0.13938316       1.72521465       2.63788994      -0.15665155      -0.22315828      -0.07286221       8.81028748       9.77314245     -13.48034160
Si       0.06001812      -0.00745993       7.61815884       0.55670457      -0.55679285      -1.59374488     -14.15353525       6.75352994      -5.63986504
C       -0.15978759       0.02483826       5.66720985      -0.04068472      -0.50651745       1.01595255      11.73568448      -9.86935177       6.68984712
C        1.48450410       0.99827403       3.09804571      -0.49977837       0.16220458       0.96191360       1.83544717      -1.06949181       3.20897269
C       -0.01250073       1.81375819       0.57369331       0.20412209       0.12019479      -0.34343726       1.12080222      -0.39068662       3.33855562
Si      -0.12473771       3.52765733       4.92722406      -0.66273867       1.97838824      -1.28721721      13.15340587       6.55275726      15.43633848
Si      -1.54016877       4.58919945       2.55482503      -0.07351302      -0.99685781       0.42086121       5.37612545      -9.44850149       6.74033511
Si      -1.54865503       2.75114848       7.67626877       0.09103989      -0.26563079       0.14728008       5.09248425      -8.85635685      -8.81181757
C       -1.47600686       2.63621607       5.65754411       0.14879459       0.26507603       0.49189356      -1.82073067      -2.30430273       2.86360746
C       -0.03054436       3.53088709       3.26213975       0.19331754       0.16524695       0.55113574       0.56804292       1.57807652      -7.46787202
C       -1.48695818       4.44827842       0.75176088       0.40617860      -0.13192202       0.23642466      -2.04858895       0.40622218      -0.46533087
Si       4.80444523       0.80749458       5.04495335      -0.65231458      -0.48511980       0.69660564     -19.03045540       6.18787225       0.73852090
Si       3.21813374       1.72948835       2.54832728       1.15200167      -0.63587803      -0.19305140      -9.71558083       4.49160524       8.90095436
Si       2.98983411       0.02095636       7.65533867      -0.82928498      -0.30839273      -0.18686128      17.22058868       0.16970928     -12.92425929
C        3.09778585      -0.04439442       5.59531332       0.13414565       0.07606874       0.41424025      -0.78307857       0.82233797       1.91525664
C        4.57798126       0.77812107       3.20521567       0.22503150      -0.30992564       0.74388654       0.53226479      -1.63439313       1.31040662
C        3.12404935       1.72383960       0.74334770       0.01827326       0.45346580       0.38135738      -1.36100188       1.95520219      -1.60947667
Si       3.18651734       3.51743961       4.95219341       1.16874026       0.06700766      -2.28432758      -8.20084140      -3.97189584       4.98433545
Si       1.66528292       4.42626963       2.55216113      -0.47800960       0.50182939      -0.79822198     -18.05133416      -7.40099758      -2.33286850
Si       1.58705229       2.66111564       7.57411242       0.38835693      -0.67623632       0.04321211      -0.31262930       0.22762469      -1.36627164
C        1.62299148       2.75169598       5.58073045      -0.00462540      -0.24935133       0.37465510      -1.87646147      -1.62498946       2.02881858
C        2.98299516       3.52487037       3.13588083      -0.72704749       0.83812695      -0.03897585       6.49987184      -1.01138877       0.56574396
C        1.68401320       4.34568503       0.66421427      -0.44760086      -0.17951674       0.60305480      -3.23460043       2.39953770       1.19005266
24
Lattice="6.1372475706660055 0.0 0.0 -3.068623785333005 5.31501230542229 0.0 -0.0 0.0 7.5161284294043975" Properties=species:S:1:pos:R:3:momenta:R:3:forces:R:3 energy=-134.3177943997201 stress="-0.6786016389522121 0.01264806423876179 -0.06752708019795205 0.01264806423876179 -0.44544572852315617 0.04739308377834993 -0.06752708019795205 0.04739308377834993 -0.4188652947580384" free_energy=-134.3177943997201 pbc="T T T"
Si       1.51325347       0.92664263       5.15597502      -0.11445730       0.89769066      -0.28377355       6.67440454      -9.52284062     -12.77481408
Si       0.00458958       1.78960770       2.52720612      -0.15665155      -0.22315828      -0.07286221      12.26727447       9.46955148       0.68599707
Si       0.08711959      -0.06937571       7.66458470       0.55670457      -0.55679285      -1.59374488     -14.57923704      12.89443874     -18.19862353
C       -0.11216346      -0.04831501       5.68887538      -0.04068472      -0.50651745       1.01595255       5.76014319      -0.81919493       2.58028652
C        1.42787449       0.96447687       3.10553458      -0.49977837       0.16220458       0.96191360       3.81242955      -1.23745620       3.34305494
C        0.01289905       1.78679367       0.58277083       0.20412209       0.12019479      -0.34343726      -0.36979412      -0.76511809       2.74769184
Si       0.00321204       3.47222396       5.08004908      -0.66273867       1.97838824      -1.28721721      -3.63491960      12.04507149      -4.92814257
Si      -1.56674965       4.50286559       2.61591340      -0.07351302      -0.99685781       0.42086121      10.19339641      -5.67622446       5.03628405
Si      -1.60256434       2.62434230       7.69673467       0.09103989      -0.26563079       0.14728008       8.13950094       5.83032200     -11.05594683
C       -1.46150588       2.64237644       5.63868430       0.14879459       0.26507603       0.49189356      -2.22698352      -0.71103012       2.93109183
C        0.04280768       3.55526723       3.32412495       0.19331754       0.16524695       0.55113574      -0.47342596       0.54540586      -4.59264621
C       -1.55705157       4.60057457       0.66557698       0.40617860      -0.13192202       0.23642466       4.58025359      -6.83921379       3.65041767
Si       4.69980271       0.86229387       5.11411190      -0.65231458      -0.48511980       0.69660564     -12.99328151      -1.72463828      -3.93235062
Si       3.20338751       1.61751823       2.46671755       1.15200167      -0.63587803      -0.19305140     -15.80649096      12.63798415      10.75107343
Si       2.99675832       0.09258777       7.56404481      -0.82928498      -0.30839273      -0.18686128      13.01583681     -10.50927323      -4.03065879
C        3.08757322      -0.02270366       5.60872121       0.13414565       0.07606874       0.41424025       0.27037777       0.21581133       1.99740063
C        4.70077700       0.93727761       3.04938298       0.22503150      -0.30992564       0.74388654       0.82442540      -1.30759356       6.10241947
C        3.10390481       1.74694437       0.66817396       0.01827326       0.45346580       0.38135738      -4.53369078       1.70422952      -1.41585568
Si       3.10283733       3.51926137       5.08546840       1.16874026       0.06700766      -2.28432758      -1.50501436      -0.62893046      -2.22667036
Si       1.68205232       4.52863178       2.53826872      -0.47800960       0.50182939      -0.79822198     -17.23896373     -16.04784434       6.50766147
Si       1.46957867       2.66982506       7.50299732       0.38835693      -0.67623632       0.04321211       5.69743675       3.95837788      13.56702070
C        1.51287546       2.66496123       5.66225324      -0.00462540      -0.24935133       0.37465510       1.50022503       0.54458872       0.61875795
C        2.96498508       3.50131637       3.06172130      -0.72704749       0.83812695      -0.03897585       5.72059047      -2.04139496       4.28031735
C        1.69443146       4.48153412       0.72051187      -0.44760086      -0.17951674       0.60305480      -5.09449335      -2.01502815      -1.64376626
