
     Program PWSCF v.6.0 (svn rev. 13079) starts on  8Nov2018 at  0:34: 7

     This program is part of the open-source Quantum ESPRESSO suite
     for quantum simulation of materials; please cite
         "P. Giannozzi et al., J. Phys.:Condens. Matter 21 395502 (2009);
          URL http://www.quantum-espresso.org",
     in publications or presentations arising from this work. More details at
     http://www.quantum-espresso.org/quote

     Serial version
     Waiting for input...
     Reading input from standard input
Warning: card &IONS ignored
Warning: card / ignored
Warning: card &CELL ignored
Warning: card / ignored

     Current dimensions of program PWSCF are:
     Max number of different atomic species (ntypx) = 10
     Max number of k-points (npk) =  40000
     Max angular momentum in pseudopotentials (lmaxx) =  3
               file H.pbe-kjpaw.UPF: wavefunction(s)  1S renormalized

     gamma-point specific algorithms are used

     G-vector sticks info
     --------------------
     sticks:   dense  smooth     PW     G-vecs:    dense   smooth      PW
     Sum         717     717    357                14243    14243    5041



     bravais-lattice index     =            0
     lattice parameter (alat)  =       9.4486  a.u.
     unit-cell volume          =     843.5418 (a.u.)^3
     number of atoms/cell      =            2
     number of atomic types    =            1
     number of electrons       =         2.00
     number of Kohn-Sham states=            1
     kinetic-energy cutoff     =      50.0000  Ry
     charge density cutoff     =     100.0000  Ry
     convergence threshold     =      1.0E-07
     mixing beta               =       0.5000
     number of iterations used =            8  plain     mixing
     Exchange-correlation      =  SLA  PW   PBX  PBC ( 1  4  3  4 0 0)

     celldm(1)=   9.448631  celldm(2)=   0.000000  celldm(3)=   0.000000
     celldm(4)=   0.000000  celldm(5)=   0.000000  celldm(6)=   0.000000

     crystal axes: (cart. coord. in units of alat)
               a(1) = (   1.000000   0.000000   0.000000 )
               a(2) = (   0.000000   1.000000   0.000000 )
               a(3) = (   0.000000   0.000000   1.000000 )

     reciprocal axes: (cart. coord. in units 2 pi/alat)
               b(1) = (  1.000000  0.000000  0.000000 )
               b(2) = (  0.000000  1.000000  0.000000 )
               b(3) = (  0.000000  0.000000  1.000000 )


     PseudoPot. # 1 for  H read from file:
     ./test_files/pseudos/H.pbe-kjpaw.UPF
     MD5 check sum: f0c5446d8b45f1c04d25babcc032f843
     Pseudo is Projector augmented-wave, Zval =  1.0
     Generated using "atomic" code by A. Dal Corso  (Quantum ESPRESSO distribution)
     Shape of augmentation charge: PSQ
     Using radial grid of  929 points,  2 beta functions with:
                l(1) =   0
                l(2) =   0
     Q(r) pseudized with 0 coefficients


     atomic species   valence    mass     pseudopotential
        H              1.00     1.00000      H( 1.00)

      8 Sym. Ops. (no inversion) found



   Cartesian axes

     site n.     atom                  positions (alat units)
         1           H   tau(   1) = (   0.5037140   0.5000000   0.5000000  )
         2           H   tau(   2) = (   0.8962860   0.5000000   0.5000000  )

     number of k points=     1
                       cart. coord. in units 2pi/alat
        k(    1) = (   0.0000000   0.0000000   0.0000000), wk =   2.0000000

     Dense  grid:     7122 G-vectors     FFT dimensions: (  32,  32,  32)

     Estimated max dynamical RAM per process >       5.60Mb

     Initial potential from superposition of free atoms
     Check: negative starting charge=   -0.000360

     starting charge    1.99998, renormalised to    2.00000

     negative rho (up, down):  3.601E-04 0.000E+00
     Starting wfc are    2 randomized atomic wfcs

     total cpu time spent up to now is        0.1 secs

     Self-consistent Calculation

     iteration #  1     ecut=    50.00 Ry     beta=0.50
     Davidson diagonalization with overlap
     ethr =  1.00E-02,  avg # of iterations =  1.0

     Threshold (ethr) on eigenvalues was too large:
     Diagonalizing with lowered threshold

     Davidson diagonalization with overlap
     ethr =  4.06E-04,  avg # of iterations =  1.0

     negative rho (up, down):  6.772E-05 0.000E+00

     total cpu time spent up to now is        0.1 secs

     total energy              =      -2.04939106 Ry
     Harris-Foulkes estimate   =      -2.04989397 Ry
     estimated scf accuracy    <       0.00742761 Ry

     iteration #  2     ecut=    50.00 Ry     beta=0.50
     Davidson diagonalization with overlap
     ethr =  3.71E-04,  avg # of iterations =  1.0

     negative rho (up, down):  1.726E-05 0.000E+00

     total cpu time spent up to now is        0.2 secs

     total energy              =      -2.04963377 Ry
     Harris-Foulkes estimate   =      -2.04968280 Ry
     estimated scf accuracy    <       0.00154978 Ry

     iteration #  3     ecut=    50.00 Ry     beta=0.50
     Davidson diagonalization with overlap
     ethr =  7.75E-05,  avg # of iterations =  1.0

     negative rho (up, down):  1.921E-05 0.000E+00

     total cpu time spent up to now is        0.2 secs

     total energy              =      -2.04974604 Ry
     Harris-Foulkes estimate   =      -2.04974130 Ry
     estimated scf accuracy    <       0.00001079 Ry

     iteration #  4     ecut=    50.00 Ry     beta=0.50
     Davidson diagonalization with overlap
     ethr =  5.39E-07,  avg # of iterations =  3.0

     negative rho (up, down):  2.392E-05 0.000E+00

     total cpu time spent up to now is        0.2 secs

     total energy              =      -2.04975644 Ry
     Harris-Foulkes estimate   =      -2.04975808 Ry
     estimated scf accuracy    <       0.00000576 Ry

     iteration #  5     ecut=    50.00 Ry     beta=0.50
     Davidson diagonalization with overlap
     ethr =  2.88E-07,  avg # of iterations =  2.0

     negative rho (up, down):  2.412E-05 0.000E+00

     total cpu time spent up to now is        0.2 secs

     total energy              =      -2.04975717 Ry
     Harris-Foulkes estimate   =      -2.04975728 Ry
     estimated scf accuracy    <       0.00000119 Ry

     iteration #  6     ecut=    50.00 Ry     beta=0.50
     Davidson diagonalization with overlap
     ethr =  5.94E-08,  avg # of iterations =  1.0

     negative rho (up, down):  2.391E-05 0.000E+00

     total cpu time spent up to now is        0.2 secs

     total energy              =      -2.04975691 Ry
     Harris-Foulkes estimate   =      -2.04975722 Ry
     estimated scf accuracy    <       0.00000069 Ry

     iteration #  7     ecut=    50.00 Ry     beta=0.50
     Davidson diagonalization with overlap
     ethr =  3.46E-08,  avg # of iterations =  3.0

     negative rho (up, down):  2.385E-05 0.000E+00

     total cpu time spent up to now is        0.3 secs

     total energy              =      -2.04975711 Ry
     Harris-Foulkes estimate   =      -2.04975721 Ry
     estimated scf accuracy    <       0.00000085 Ry

     iteration #  8     ecut=    50.00 Ry     beta=0.50
     Davidson diagonalization with overlap
     ethr =  3.46E-08,  avg # of iterations =  1.0

     negative rho (up, down):  2.385E-05 0.000E+00

     total cpu time spent up to now is        0.3 secs

     total energy              =      -2.04975711 Ry
     Harris-Foulkes estimate   =      -2.04975712 Ry
     estimated scf accuracy    <       0.00000061 Ry

     iteration #  9     ecut=    50.00 Ry     beta=0.50
     Davidson diagonalization with overlap
     ethr =  3.03E-08,  avg # of iterations =  1.0

     negative rho (up, down):  2.378E-05 0.000E+00

     total cpu time spent up to now is        0.3 secs

     total energy              =      -2.04975690 Ry
     Harris-Foulkes estimate   =      -2.04975712 Ry
     estimated scf accuracy    <       0.00000052 Ry

     iteration # 10     ecut=    50.00 Ry     beta=0.50
     Davidson diagonalization with overlap
     ethr =  2.62E-08,  avg # of iterations =  2.0

     negative rho (up, down):  2.381E-05 0.000E+00

     total cpu time spent up to now is        0.3 secs

     total energy              =      -2.04975706 Ry
     Harris-Foulkes estimate   =      -2.04975714 Ry
     estimated scf accuracy    <       0.00000041 Ry

     iteration # 11     ecut=    50.00 Ry     beta=0.50
     Davidson diagonalization with overlap
     ethr =  2.07E-08,  avg # of iterations =  1.0

     negative rho (up, down):  2.383E-05 0.000E+00

     total cpu time spent up to now is        0.3 secs

     total energy              =      -2.04975704 Ry
     Harris-Foulkes estimate   =      -2.04975707 Ry
     estimated scf accuracy    <       0.00000018 Ry

     iteration # 12     ecut=    50.00 Ry     beta=0.50
     Davidson diagonalization with overlap
     ethr =  9.19E-09,  avg # of iterations =  1.0

     negative rho (up, down):  2.386E-05 0.000E+00

     total cpu time spent up to now is        0.4 secs

     End of self-consistent calculation

          k = 0.0000 0.0000 0.0000 (  2521 PWs)   bands (ev):

    -7.8266

     highest occupied level (ev):    -7.8266

!    total energy              =      -2.04975701 Ry
     Harris-Foulkes estimate   =      -2.04975706 Ry
     estimated scf accuracy    <       0.00000007 Ry

     total all-electron energy =        -2.049748 Ry

     The total energy is the sum of the following terms:

     one-electron contribution =      -1.09247608 Ry
     hartree contribution      =       0.59487776 Ry
     xc contribution           =      -0.97475152 Ry
     ewald contribution        =      -0.57714796 Ry
     one-center paw contrib.   =      -0.00025921 Ry

     convergence has been achieved in  12 iterations

     Forces acting on atoms (Ry/au):

     atom    1 type  1   force =     0.07413986    0.00000000    0.00000000
     atom    2 type  1   force =    -0.07413986    0.00000000    0.00000000

     Total force =     0.104850     Total SCF correction =     0.000023

     Writing output data file pwscf.save

     init_run     :      0.05s CPU      0.05s WALL (       1 calls)
     electrons    :      0.25s CPU      0.26s WALL (       1 calls)
     forces       :      0.00s CPU      0.00s WALL (       1 calls)

     Called by init_run:
     wfcinit      :      0.00s CPU      0.00s WALL (       1 calls)
     potinit      :      0.02s CPU      0.02s WALL (       1 calls)

     Called by electrons:
     c_bands      :      0.03s CPU      0.03s WALL (      13 calls)
     sum_band     :      0.03s CPU      0.03s WALL (      13 calls)
     v_of_rho     :      0.17s CPU      0.17s WALL (      13 calls)
     newd         :      0.01s CPU      0.01s WALL (      13 calls)
     PAW_pot      :      0.01s CPU      0.01s WALL (      13 calls)
     mix_rho      :      0.02s CPU      0.02s WALL (      13 calls)

     Called by c_bands:
     init_us_2    :      0.00s CPU      0.00s WALL (      27 calls)
     regterg      :      0.03s CPU      0.03s WALL (      13 calls)

     Called by sum_band:
     sum_band:bec :      0.00s CPU      0.00s WALL (      13 calls)
     addusdens    :      0.01s CPU      0.01s WALL (      13 calls)

     Called by *egterg:
     h_psi        :      0.02s CPU      0.02s WALL (      33 calls)
     s_psi        :      0.00s CPU      0.00s WALL (      33 calls)
     g_psi        :      0.00s CPU      0.00s WALL (      19 calls)
     rdiaghg      :      0.00s CPU      0.00s WALL (      31 calls)

     Called by h_psi:
     h_psi:pot    :      0.02s CPU      0.02s WALL (      33 calls)
     h_psi:calbec :      0.00s CPU      0.00s WALL (      33 calls)
     vloc_psi     :      0.02s CPU      0.02s WALL (      33 calls)
     add_vuspsi   :      0.00s CPU      0.00s WALL (      33 calls)

     General routines
     calbec       :      0.00s CPU      0.00s WALL (      50 calls)
     fft          :      0.07s CPU      0.07s WALL (     173 calls)
     fftw         :      0.02s CPU      0.02s WALL (      79 calls)
     davcio       :      0.00s CPU      0.00s WALL (       1 calls)


     PWSCF        :     0.38s CPU         0.40s WALL


   This run was terminated on:   0:34: 8   8Nov2018

=------------------------------------------------------------------------------=
   JOB DONE.
=------------------------------------------------------------------------------=
