24
Lattice="6.1372475706660055 0.0 0.0 -3.068623785333005 5.31501230542229 0.0 -0.0 0.0 7.5161284294043975" Properties=species:S:1:pos:R:3:momenta:R:3:forces:R:3 energy=-131.2208143780268 target_atoms="0 1 2 3 4 5" stress="-0.6302673528949325 -0.05749672292570169 -0.05836641565362737 -0.05749672292570169 -0.47416133477308103 0.06247562620609388 -0.05836641565362737 0.06247562620609388 -0.40851214312942213" free_energy=-131.2208143780268 pbc="T T T"
Si       1.37144550       0.91907041       4.99025532       0.90726413      -0.21978725      -0.42324793      11.49456414      -2.93154591       6.91217318
Si      -0.00149832       1.72102212       2.60371206       0.00190099       0.85977073      -0.36996199      -2.65446758      11.71599947     -14.75111106
Si       0.03952803      -0.11009633       7.72546152      -0.35229483       0.93011606       0.58484862      -8.68360935      23.16166332     -15.65794825
C       -0.04275137       0.02300049       5.62196859      -0.68288292      -0.17108001      -0.98562853       5.35178888      -7.43960417       6.18302435
C        1.43833342       0.96063431       3.05060916       0.09244560      -0.34888553      -0.15864259       5.58218296      -3.42977754       3.46839152
C        0.00297658       1.84256836       0.60069597      -0.14621191      -0.64445795      -0.19697441      -0.17468966      -0.47238645       1.73990557
Si      -0.12844571       3.49868608       4.97079941      -2.07903618      -0.36350661       0.33941632      16.15124697       8.61258195       9.74796889
Si      -1.53191254       4.45676226       2.61194821       0.60525047       0.63482009      -0.48009337       6.39280853      -1.28063570      -3.18876307
Si      -1.60447857       2.68215518       7.55383750      -0.05783523      -0.61829229      -0.19544437      15.35371911      -2.44271915       3.64125922
C       -1.57691355       2.61326192       5.68979401       0.78136475      -0.15034660      -0.13017229       2.10256051      -1.06168594       1.89470210
C        0.10599402       3.62210469       3.20155641       0.56974682       0.73684736      -0.12643043      -1.45246453      -1.83455318      -3.36854992
C       -1.57103388       4.54781432       0.63989959      -0.52548128      -1.18965313       2.55467559       5.59054428      -4.75421664       3.53077296
Si       4.78408031       0.87238550       5.12538864      -0.71534611       0.39020625       0.58232237     -13.50181804      -3.89656003      -2.56203046
Si       3.06405596       1.78499172       2.59774065       0.05688575      -0.27111667       1.45599427       0.34961819      -3.63688040      -5.00003978
Si       2.95376466       0.15464864       7.51987649      -2.03223269       0.82992211       0.35928286       8.97189231      -7.81079449      -2.69910609
C        3.22802905      -0.04443760       5.56375329      -0.18292377      -0.15825913      -0.49753983      -3.67668119       1.35817739       2.01783974
C        4.68005902       0.81986885       3.23724301       1.45875707      -0.34147086      -1.00828890      -1.98949981       1.98697709       0.09512303
C        3.27082025       1.74417394       0.59967203       0.72565756       0.22238768      -0.35897232      -8.37616127       2.85266069       4.61600113
Si       3.13273164       3.41557663       5.08783111       1.10360917       0.17482727      -0.77277155     -11.85347890       7.89995280      -8.85016286
Si       1.67006845       4.44788198       2.58019693      -0.63656029       0.17944744       0.17904954     -17.58456916      -7.25544993       3.70981209
Si       1.51575192       2.78705225       7.49020648       1.48055615       0.00828170      -0.71397814      -5.35104640     -11.43325056       2.82621182
C        1.57225886       2.60117018       5.59427118       0.35392124      -0.18372772       0.54836843      -2.12067039       2.26835234       1.60662171
C        2.94524768       3.47405049       3.20190265      -0.69359516      -0.71325611       0.33454496       6.29293884       0.07754341       1.59823501
C        1.62327595       4.46215525       0.63125600      -0.03295933       0.40721316      -0.52035629      -6.21470846      -0.25384839       2.48966916
24
Lattice="6.1372475706660055 0.0 0.0 3.0686237853330005 5.31501230542229 0.0 -0.0 0.0 7.5161284294043975" Properties=species:S:1:pos:R:3:momenta:R:3:c_unc:R:1:forces:R:3 step=1.0 target_atoms="21 23 10 22 16 18 15 11 6 20 7 8 12 19 14 9 13 17" energy=-131.5928971696058 stress="-0.6201271245959223 -0.05563919438432303 -0.05965445037296154 -0.05563919438432303 -0.4735899221756846 0.05705787937291459 -0.05965445037296154 0.05705787937291459 -0.4072908574317462" free_energy=-131.5928971696058 pbc="T T T"
Si       1.37732061       0.91762807       4.98888022       2.42603296      -0.60650034      -0.36093195       0.00429506      11.56552838      -2.41151022       7.20655867
Si       6.13500146       1.72587009       2.60095260      -0.40774158       1.90966445      -1.19400431       0.00310473      -2.76012526      11.37391155     -14.16393661
Si       3.10600947       5.21103117       0.20951496      -0.84711467       2.54760301      -0.48951757       0.00548572      -8.19479873      22.71811837     -15.71369439
C        6.09113950       0.01641450       5.61714679      -0.14425403      -1.41766286      -0.21466765       0.00270444       5.42546868      -7.09105989       6.13102880
C        1.43911505       0.95774081       3.04923805       0.08460218      -0.35899361      -0.19433768       0.00239232       5.34279786      -3.22668675       3.47851133
C        6.13862005       1.83621856       0.59910582      -0.24639777      -0.90923919      -0.19765550       0.00244096      -0.06911542      -0.29616667       1.76927767
Si       6.00321076       3.49836507       4.97286999      -1.09738753       0.18089006       0.81181283       0.06353910      16.49558996       8.08004939       9.43088378
Si       4.60727389       4.45837306       2.60982478       0.49013385       0.26588597      -0.68451292       0.07093168       6.10028844      -1.53967162      -2.93102966
Si       4.53456209       2.68090824       0.03708924       1.08531818      -0.09153429      -0.16024822       0.07140578      15.07135840      -2.53533257       3.50252437
C        4.56613258       2.61040275       5.69040786       0.62665901      -0.54111606       0.28840352       0.08116529       1.73979319      -1.00369836       1.98059475
C        6.25011842       3.62837107       3.20003764       1.09504627       0.80747976      -0.23296591       0.03527944      -1.68578759      -1.96914021      -3.25823900
C        4.56312339       4.53712737       0.66332552      -0.25585293      -1.42079810       3.18025489       0.06189655       5.15890784      -4.37191699       2.81279826
Si       4.77867842       0.87401214       5.12694786      -2.34434720       0.51817584       0.30299719       0.07581668     -13.40108317      -3.99690397      -3.25623716
Si       3.06489421       1.78298494       2.60228253       0.42900190      -0.87699960       1.12437217       0.08348675       0.38818590      -3.97941957      -5.55950319
Si       2.94801485       0.15580349       0.00422368      -1.26221919      -0.16168970      -0.08405755       0.07951427       9.58057625      -8.39907873      -2.58425031
C        6.29415364       5.26923833       5.55944479      -0.43340132      -0.16709536      -0.55418542       0.06148657      -3.75093668       1.41590384       2.13983477
C        4.69265279       0.81683892       3.23099810       1.62430317      -0.39672185      -0.50804256       0.04772284      -2.26316119       2.08620025       0.31258628
C        3.27360219       1.74729190       0.59821963      -0.03986696       0.52916615       0.00960004       0.08368222      -8.49075361       2.74403182       4.67905301
Si       3.13518978       3.41796299       5.08469017       0.29685755       1.16902268      -1.00573300       0.05816018     -11.51819314       7.99778032      -8.07660789
Si       7.80353165       4.44840823       2.58055177      -1.49931623       0.11164004       0.01236002       0.07823554     -16.94122831      -7.29271635       3.80811269
Si       7.65844871       2.78529177       7.48822100       1.62310535      -0.99939225      -0.40786542       0.06596396      -5.88519504     -10.51777733       2.93848462
C        1.57356980       2.60028187       5.59829887      -0.03059751      -0.02703922       0.43297166       0.02475804      -2.07843237       2.26109154       1.42258414
C        2.94073173       3.46830772       3.20573171      -0.41181848      -0.67788924       0.58936775       0.03630966       6.29210622       0.35749963       1.40260457
C        7.75728857       4.46627574       0.62726162      -0.76074504       0.61314371      -0.46341443       0.03418193      -6.12179063      -0.40350746       2.52806050
24
Lattice="6.1372475706660055 0.0 0.0 3.0686237853330005 5.31501230542229 0.0 -0.0 0.0 7.5161284294043975" Properties=species:S:1:pos:R:3:momenta:R:3:c_unc:R:1:forces:R:3 step=9.0 target_atoms="2 13 20 0 12 18 15 10 14 23 17 4 22 9 8 5 3 16 11" energy=-144.3568135154247 stress="-0.025851904038594394 0.03014025239570224 -0.02193741594517387 0.03014025239570224 -0.09645855450285416 -0.0016940435243099866 -0.02193741594517387 -0.0016940435243099866 -0.11905683443922752" free_energy=-144.3568135154247 pbc="T T T"
Si       1.55027193       0.87864410       5.02311192       6.78841043      -1.78793666       1.76462514       0.01121982      -2.13731727      -0.73088635      -1.66961506
Si       6.12488996       1.86073023       2.47242307       0.62025686       5.49130186      -5.48148802       0.00873598       7.22245488      -4.97849741       8.74809569
Si       6.11530606       0.08819633       0.06923131      -2.44756117       7.41001622      -7.16090240       0.01103663       2.27809680      -7.64826381      -1.50662169
C        3.11145691       5.14119379       5.71979951       2.06730943      -2.86116668       2.36314499       0.02103988      -0.76145802       4.76052421      -0.87833579
C        1.51750578       0.89020088       3.12231515       1.56934797      -0.98871854       2.05699345       0.01424365       0.02776553       0.28614627       0.87065514
C        6.15632050       1.80970909       0.59618261       0.97955300       0.14832144       0.27237168       0.01582479       0.33879367       0.64237565       1.43435012
Si       6.12040117       3.56132858       5.04134132       6.98473624       2.30693949       3.20068528       0.00986903       0.05389710      -1.69941152      -1.03538276
Si       4.63862743       4.43766816       2.56574737       0.32812581      -1.30938646      -1.39817852       0.00969611      -2.96188135       2.22003464       4.51719139
Si       4.65647251       2.68929503       0.06059494       4.94202611       0.94267760       1.41854609       0.01567663      -6.50086092       4.24331172      -4.57238474
C        4.65120000       2.56710148       5.76765621       1.61763913      -0.56014275       1.54252779       0.01504781      -1.22777148       1.98293874      -2.48072090
C        6.23054534       3.63206835       3.12873167      -1.40971223      -0.77777845      -1.27742986       0.01277451      -3.29204388      -2.21581960       1.80764626
C        4.60646963       4.38162896       0.88608753       0.68322560      -2.27839410       2.22210010       0.02279206      -0.58463313       2.30320711      -7.43607227
Si       4.58366836       0.82379145       5.09067651      -7.62137277      -2.43052343      -2.46830815       0.01139916       4.34569216       0.95408765      -1.73458311
Si       3.08078033       1.73115221       2.58482303       0.57173359      -2.24715917      -2.31962751       0.01111998       1.06949481      -0.19265414      -0.50046095
Si       2.99860640       0.07525419       7.51417253       3.78487156      -4.56314882       0.81207604       0.01337898       0.32208531      -1.97734675       3.15006698
C        6.14894938       5.30567041       5.58303095      -3.64072575       1.05731719       1.20407562       0.01229380      -1.47033489       0.04394377       2.63215836
C        4.75811924       0.83828121       3.20835074       0.22642702       0.99930031      -0.46245251       0.02176335      -3.55262263       1.38733964      -0.40634874
C        3.10226190       1.82886889       0.68160906      -4.29959276       1.54198938       1.62886613       0.01424164      -0.87282248      -0.20282942      -0.24936570
Si       3.05586367       3.50403869       5.04618517      -4.08435526       3.67515332      -0.40793835       0.01228608       0.84958417      -3.05377509       2.83855467
Si       7.67311288       4.42966685       2.57287422      -5.02508220      -0.78498757      -1.43077373       0.00935780       3.09073708       0.36267735      -1.49901818
Si       7.66047941       2.70716389       7.52208271      -0.21982627      -3.25393327       2.22167389       0.01118406       0.69648961      -0.22128992      -0.15087603
C        7.61876729       2.61690577       5.61191071      -2.32338551       0.26119707      -0.16547746       0.00846683       1.20834550       1.12959536       1.38117868
C        3.05421749       3.43871285       3.28362412       3.03256284      -0.08129522       1.11787226       0.01455806       0.90197296       2.38126238      -3.43635304
C        7.60485743       4.47942265       0.65532777      -3.12461168       0.09035722       0.74701804       0.01407421       0.95633648       0.22332954       0.17624167
6
Lattice="3.0686237853330027 0.0 0.0 -1.5343118926665025 2.657506152711145 0.0 -0.0 0.0 7.5161284294043975" Properties=species:S:1:pos:R:3:momenta:R:3:forces:R:3 energy=-36.20411815541677 target_atoms="0 1 2 3 4 5" stress="-0.16270542873904362 0.023210250146958357 -0.007936539938700197 0.023210250146958357 -0.03967587950280534 0.13174571614876768 -0.007936539938700197 0.13174571614876768 -0.3798458602756553" free_energy=-36.20411815541677 pbc="T T T"
Si       1.55406367       0.89432488       4.96108429      -1.57642379      -0.23665898       1.30413568      -0.66888004      -4.10824370      11.75541089
Si       0.01849052       1.73223689       2.57147177       0.37223003      -1.37764641      -0.73297737       0.76943691       4.22120943     -10.53743153
Si       0.07341260       0.01725669       7.54100472       0.22356225       0.06247600       0.94390467      -4.00198399       0.55323545      -0.95787481
C       -0.00485230      -0.01940540       5.57898478       1.58289526       0.86817903      -1.29669725       0.89532436       0.83703912       1.22084923
C        1.58889989       0.86351942       3.17468975      -1.03336403      -0.27890702      -0.86761441      -1.10391404      -0.47755068      -1.58639455
C       -0.07264103       1.80532005       0.67362197       0.43110028       0.96255738       0.64924868       4.11001680      -1.02568962       0.10544077
6
Lattice="3.0686237853330027 0.0 0.0 1.5343118926665003 2.657506152711145 0.0 -0.0 0.0 7.5161284294043975" Properties=species:S:1:pos:R:3:momenta:R:3:c_unc:R:1:forces:R:3 step=3.0 target_atoms="0 5 1 4 3 2" energy=-36.46716894837643 stress="-0.06928143130646136 0.04113608910450681 -0.08133543351936989 0.04113608910450681 -0.0036657184908201633 0.055510088803070144 -0.08133543351936989 0.055510088803070144 -0.12842173437246301" free_energy=-36.46716894837643 pbc="T T T"
Si       1.53669442       0.89151302       4.98494595      -1.66891247      -0.27374848       3.05674127       0.01205841       2.87733182      -1.38971137       3.33872304
Si       3.09266252       1.71822069       2.55911741       0.61932188      -1.29319270      -1.48468458       0.01471099      -2.22257614       2.29272584      -3.97734240
Si       0.06937367       0.02025220       0.02800635      -0.98839845       0.52458851      -0.46451588       0.02451312      -2.98013149       0.87106301      -0.70084169
C        1.56707616       2.66012921       5.53757787       1.43295252       0.90529797      -2.11543082       0.01818602      -0.75229759       0.11511670       2.76304490
C        1.56157141       0.85454206       3.15079779      -1.13151991      -0.45090364      -1.05450335       0.01711657      -0.11926144      -0.46874045      -0.24702734
C        3.02277961       1.82461324       0.70469469       1.73655643       0.58795835       2.06239336       0.01388377       3.19693484      -1.42045374      -1.17655651
6
Lattice="3.0686237853330027 0.0 0.0 1.5343118926665003 2.657506152711145 0.0 -0.0 0.0 7.5161284294043975" Properties=species:S:1:pos:R:3:momenta:R:3:c_unc:R:1:forces:R:3 step=7.0 target_atoms="4 1 5 2 3 0" energy=-35.68030840548479 stress="-0.04432125313618955 -0.020082062059576886 0.017067395303289244 -0.020082062059576886 5.6838281929640997e-05 0.016321796311992567 0.017067395303289244 0.016321796311992567 -0.003819200576384918" free_energy=-35.68030840548479 pbc="T T T"
Si       1.51251563       0.88625950       5.03531202      -2.01932976      -0.51778864       4.08036157       0.03521326       4.34173134       1.28293625      -4.33860099
Si       3.09938274       1.70637638       2.53592306       0.30095482      -0.37629112      -1.61977279       0.01616783      -1.26670437       1.16925393       1.85680550
Si       0.04727541       0.03072033       0.01068026      -1.90346236       0.97646518      -2.05277736       0.02386832      -0.43163523       0.41777681       0.55512997
C        0.09004766       0.03333596       5.45635064       2.32747818       1.01829883      -3.36305752       0.03321938      -4.24755699      -1.41982797       5.90172025
C        1.52212913       0.84109190       3.12342391      -1.29600133      -0.36235217      -0.42847703       0.01327579       1.20498189      -0.38688548       1.11308668
C        3.09743317       1.82285254       0.79027403       2.59036045      -0.73833209       3.38372314       0.02201497       0.39918336      -1.06325355      -5.08814141
24
Lattice="6.1372475706660055 0.0 0.0 -3.068623785333005 5.31501230542229 0.0 -0.0 0.0 7.5161284294043975" Properties=species:S:1:pos:R:3:momenta:R:3:forces:R:3 energy=-146.8255196535744 target_atoms="0 1 2 3 4 5" stress="-0.02165871928515364 0.027316763655799783 -0.012570664835358469 0.027316763655799783 -0.0044199640671262475 -0.0009397083772976635 -0.012570664835358469 -0.0009397083772976635 0.0026605007694572333" free_energy=-146.8255196535744 pbc="T T T"
Si       1.57656511       0.87114079       5.03170728      -0.81401091       0.33493101       1.81795224      -0.98699732       1.33839336       0.71248428
Si      -0.00135455       1.77436274       2.58314722      -0.59174804       1.14801879      -0.16395035      -0.47465479       0.24349118      -2.08295838
Si       0.04405774       0.04343568       7.51321690      -0.56858710       0.55828891      -1.46739740      -0.80802694      -0.62943042       2.06246816
C        0.00567030       0.03440109       5.71366865       0.03063106      -0.04803349      -0.07756518       1.01322210      -0.74929312      -2.16639858
C        1.52492623       0.91531672       3.15508284      -0.50302779      -0.26651724       0.11183886       1.03179146      -0.06061864       0.29054293
C       -0.00371084       1.82810551       0.64167764      -0.04282296      -0.02378150      -1.01450300       0.58725854      -1.40476888       1.05818896
Si       0.02884323       3.55160923       5.01661593       2.64653547      -0.45859224       1.47524309      -0.65456560       1.22216788       0.30221937
Si      -1.50400412       4.49058629       2.48962973      -1.26940945      -1.42895912      -0.64179834      -0.64605068      -1.51960257       2.07949170
Si      -1.48699864       2.66736461       7.53655428      -0.52271648      -0.30319411       1.29731108      -4.53174025       0.41769084       0.25661203
C       -1.56169001       2.69502003       5.64872614      -0.21843273      -0.10045211       0.50329044       2.55907028      -0.57244930       0.86135014
C       -0.00337218       3.53538436       3.11531526       0.55340797      -0.27769056      -0.01675530       0.86439900       1.24824927       0.93474393
C       -1.53348937       4.41233462       0.70077167      -0.75373107      -0.11765368       0.35132086       0.94206116       1.47146422      -2.53352118
Si       4.65392897       0.94587569       5.05593690      -0.09746614      -0.72705060      -0.69055105      -0.35990783      -2.78985593      -0.04305639
Si       3.09256387       1.82334827       2.55808667       0.32565746       0.19162610       0.27187398      -1.02628258      -1.16873068      -0.52838512
Si       3.11189930       0.05089554       7.57018796       0.32716406      -0.15016078       1.75846159      -1.46080697      -1.37079226       0.00692167
C        3.09425449       0.05806473       5.70775359      -0.06488277      -0.23110290      -0.38037390       0.70369458      -1.04710080      -0.99144914
C        4.56738692       0.91409866       3.17417872       0.65149223      -0.03500267       0.43994725       1.52465189      -0.33198386       0.19351005
C        3.06773288       1.76005342       0.69484006       0.68020958       0.73704517      -0.88896156       0.34804407       1.89541184      -0.71251896
Si       3.11528042       3.50963014       5.04383505       0.56865740      -0.88587606       0.20900825      -2.73586648       4.32821050      -0.30626782
Si       1.58814169       4.44932291       2.51588802       0.29877480       0.06891528      -1.74636525      -1.35179823      -0.15871857       0.55139646
Si       1.49956027       2.69878818       7.55616498      -1.16150683       0.89910766      -0.19386954       3.99653695      -0.32017616      -0.17744304
C        1.55173635       2.71560863       5.67626674       0.55838363       0.02250271      -0.78851811       0.01628156      -1.71947004      -0.27048978
C        3.09860749       3.54886427       3.15450016      -0.08804972       0.23180367      -0.30877413       0.42046679       1.09213245       0.25684526
C        1.53805155       4.45139762       0.64167200       0.05547832       0.86182776       0.14313550       1.02921929       0.58577969       0.24571346
24
Lattice="6.1372475706660055 0.0 0.0 3.0686237853330005 5.31501230542229 0.0 -0.0 0.0 7.5161284294043975" Properties=species:S:1:pos:R:3:momenta:R:3:c_unc:R:1:forces:R:3 step=1.0 target_atoms="20 19 21 7 6 18 11 10 15 9 17" energy=-146.8285683164392 stress="-0.026700158948514425 0.027520474690515478 -0.011906035272495253 0.027520474690515478 -0.006170341439875304 -0.00034553381578304184 -0.011906035272495253 -0.00034553381578304184 0.003213110736774478" free_energy=-146.8285683164392 pbc="T T T"
Si       1.57355977       0.87259939       5.03821241      -0.89984552       0.49429115       1.88512179       0.00162568      -0.88889105       1.25157453       0.48660482
Si       6.13369462       1.77839193       2.58227045      -0.65681177       1.14867548      -0.34052191       0.00170327      -0.32038705       0.06578788      -2.17448206
Si       0.04204385       0.04537473       7.50853767      -0.57994273       0.54698568      -1.20026068       0.00130308      -0.78377148      -0.66569302       2.16683440
C        6.14344950       0.03366561       5.71207998       0.09896819      -0.13498742      -0.31413929       0.00193715       0.96466592      -0.77101726      -2.17623168
C        1.52090211       0.91324418       3.15611288      -0.47847784      -0.24335879       0.14163470       0.00335075       1.08801342      -0.03116268       0.28691400
C        6.13351204       1.82736987       0.63396872       0.03662285      -0.15050644      -0.86876356       0.00205271       0.54791936      -1.36682144       1.27089561
Si       6.17523407       3.55024021       5.02171861       2.55786837      -0.32490090       1.43326863       0.01177221      -0.90987864       1.24713162       0.10071246
Si       4.62872107       4.48539008       2.48786052      -1.30598267      -1.53561382      -0.36227786       0.01165563      -0.50966291      -1.35843522       2.25382447
Si       4.64799608       2.66625504       0.02500282      -0.75878480      -0.32557691       1.31219097       0.00826913      -4.73582649       0.49732743       0.06027652
C        4.57479593       2.69414474       5.65291168       0.04186995      -0.11486534       0.52296730       0.01919169       2.66486622      -0.62217506       0.79363291
C        6.13872031       3.53342313       3.11526173       0.63022767      -0.19352732       0.00425187       0.01715480       0.72460084       1.36311343       0.95092271
C        4.59782609       4.41158939       0.70267310      -0.69613189      -0.06513261       0.10905646       0.01259313       1.04601311       1.47434294      -2.61791368
Si       4.65340879       0.94316311       5.05341969      -0.20090630      -0.81659593      -0.73344453       0.00451879      -0.25345037      -2.88364387       0.12863849
Si       3.09360300       1.82386646       2.55886074       0.26852727       0.10067582       0.16258797       0.00869596      -1.01831740      -1.18914568      -0.58846621
Si       3.11270742       0.05010585       0.06028359       0.12882710      -0.29867952       1.78453809       0.00824596      -1.53795724      -1.23954058      -0.24127369
C        3.09426253       0.05574570       5.70446370       0.06076631      -0.33659209      -0.41044821       0.01723827       0.69016244      -1.01307071      -0.77944901
C        4.57307017       0.91345432       3.17815691       0.72920183      -0.12205708       0.52312622       0.00663167       1.34674596      -0.30267695       0.00491367
C        3.07300233       1.76673485       0.68731953       0.60064444       0.89563805      -0.93924954       0.02202417       0.16191254       1.69592733      -0.43617178
Si       3.11682716       3.50707025       5.04447122       0.32457174      -0.57207691       0.15168569       0.01191103      -2.79340498       4.59950668      -0.39711864
Si       7.72620883       4.44949264       2.50988353       0.16816340       0.02923252      -1.67527427       0.01078891      -1.31207239      -0.10669751       0.75166660
Si       7.63317738       2.70178194       0.03925627      -0.90799378       0.81944048      -0.25793617       0.01027157       4.42978730      -0.25219971      -0.29620875
C        7.69368777       2.71545125       5.66968656       0.59583875      -0.06853810      -0.80876316       0.01152662      -0.01642015      -1.76578662       0.00006876
C        3.09838554       3.55139602       3.15231952       0.02761786       0.38109173      -0.22262453       0.00869943       0.39984582       0.97666115       0.30574251
C        7.67641506       4.45857665       0.64268247       0.21516159       0.88697830       0.10327403       0.00927006       1.01550721       0.39669333       0.14566755
