ITEM: TIMESTEP
0
ITEM: NUMBER OF ATOMS
4
ITEM: BOX BOUNDS pp pp pp
0.0000000000000000e+00 7.7100000000000000e+00
0.0000000000000000e+00 3.8550000000000000e+00
0.0000000000000000e+00 3.8550000000000000e+00
ITEM: ATOMS id c_myPress[1] c_myPress[2] c_myPress[3] c_myPress[4] c_myPress[5] c_myPress[6] 
1 2.51198e+06 3.81503e+06 4.83892e+06 95393.9 133085 393271 
2 -1.69974e+06 -2.13962e+06 -4.74858e+06 -966574 502294 158801 
3 3.63502e+06 5.08776e+06 3.97311e+06 76821.5 -82439.8 -257357 
4 -1.73095e+06 -3.98967e+06 -2.41151e+06 979102 -103187 -11958.8 
