ITEM: TIMESTEP
0
ITEM: NUMBER OF ATOMS
4
ITEM: BOX BOUNDS pp pp pp
0.0000000000000000e+00 7.7100000000000000e+00
0.0000000000000000e+00 3.8550000000000000e+00
0.0000000000000000e+00 3.8550000000000000e+00
ITEM: ATOMS id c_myPress[1] c_myPress[2] c_myPress[3] c_myPress[4] c_myPress[5] c_myPress[6] 
1 2.51506e+06 3.81827e+06 4.84041e+06 96527.1 133966 395000 
2 -1.71386e+06 -2.14715e+06 -4.75512e+06 -966030 498826 157066 
3 3.63328e+06 5.08673e+06 3.97462e+06 77313.7 -83640.4 -256131 
4 -1.73674e+06 -3.98693e+06 -2.41198e+06 980022 -104617 -10352.2 
