ITEM: TIMESTEP
0
ITEM: NUMBER OF ATOMS
4
ITEM: BOX BOUNDS pp pp pp
0.0000000000000000e+00 7.7100000000000000e+00
0.0000000000000000e+00 3.8550000000000000e+00
0.0000000000000000e+00 3.8550000000000000e+00
ITEM: ATOMS id c_myPress[1] c_myPress[2] c_myPress[3] c_myPress[4] c_myPress[5] c_myPress[6] 
1 3.09787e+06 4.29168e+06 5.41888e+06 181518 116949 337248 
2 -1.61738e+06 -2.14471e+06 -4.75297e+06 -964909 434645 61898.4 
3 3.71953e+06 5.22546e+06 4.08559e+06 74413.4 -121547 -254378 
4 -1.76313e+06 -4.01226e+06 -2.42955e+06 981181 -90392 -6936.56 
