
     Program PWSCF v.6.0 (svn rev. 13079) starts on 19Mar2019 at 16: 6:38 

     This program is part of the open-source Quantum ESPRESSO suite
     for quantum simulation of materials; please cite
         "P. Giannozzi et al., J. Phys.:Condens. Matter 21 395502 (2009);
          URL http://www.quantum-espresso.org", 
     in publications or presentations arising from this work. More details at
     http://www.quantum-espresso.org/quote

     Parallel version (MPI), running on     2 processors
     R & G space division:  proc/nbgrp/npool/nimage =       2
     Waiting for input...
     Reading input from standard input
Warning: card &IONS ignored
Warning: card / ignored
Warning: card &CELL ignored
Warning: card / ignored

     Current dimensions of program PWSCF are:
     Max number of different atomic species (ntypx) = 10
     Max number of k-points (npk) =  40000
     Max angular momentum in pseudopotentials (lmaxx) =  3

     Subspace diagonalization in iterative solution of the eigenvalue problem:
     a serial algorithm will be used

     Message from routine setup:
     no reason to have ecutrho>4*ecutwfc

     Parallelization info
     --------------------
     sticks:   dense  smooth     PW     G-vecs:    dense   smooth      PW
     Min         174      88     34                 2472      870     194
     Max         175      89     35                 2473      873     195
     Sum         349     177     69                 4945     1743     389



     bravais-lattice index     =            0
     lattice parameter (alat)  =       7.3699  a.u.
     unit-cell volume          =     400.3045 (a.u.)^3
     number of atoms/cell      =            4
     number of atomic types    =            1
     number of electrons       =        12.00
     number of Kohn-Sham states=           10
     kinetic-energy cutoff     =      10.0000  Ry
     charge density cutoff     =      80.0000  Ry
     convergence threshold     =      1.0E-07
     mixing beta               =       0.5000
     number of iterations used =            8  plain     mixing
     Exchange-correlation      =  SLA  PZ   NOGX NOGC ( 1  1  0  0 0 0)

     celldm(1)=   7.369932  celldm(2)=   0.000000  celldm(3)=   0.000000
     celldm(4)=   0.000000  celldm(5)=   0.000000  celldm(6)=   0.000000

     crystal axes: (cart. coord. in units of alat)
               a(1) = (   1.000000   0.000000   0.000000 )  
               a(2) = (   0.000000   1.000000   0.000000 )  
               a(3) = (   0.000000   0.000000   1.000000 )  

     reciprocal axes: (cart. coord. in units 2 pi/alat)
               b(1) = (  1.000000  0.000000  0.000000 )  
               b(2) = (  0.000000  1.000000  0.000000 )  
               b(3) = (  0.000000  0.000000  1.000000 )  


     PseudoPot. # 1 for Al read from file:
     ./test_files/pseudos/Al.pz-vbc.UPF
     MD5 check sum: 07ca1f8315be25fa676a30014dbf0ee7
     Pseudo is Norm-conserving, Zval =  3.0
     Generated by new atomic code, or converted to UPF format
     Using radial grid of  171 points,  2 beta functions with: 
                l(1) =   0
                l(2) =   1

     atomic species   valence    mass     pseudopotential
        Al             3.00    26.98154     Al( 1.00)

     No symmetry found



   Cartesian axes

     site n.     atom                  positions (alat units)
         1           Al  tau(   1) = (  -0.0024700   0.0001801  -0.0004138  )
         2           Al  tau(   2) = (   0.0391340   0.4383683   0.4644586  )
         3           Al  tau(   3) = (   0.4899931   0.0009972   0.4607170  )
         4           Al  tau(   4) = (   0.4477019   0.4835313   0.0239562  )

     number of k points=     8  Methfessel-Paxton smearing, width (Ry)=  0.0200
                       cart. coord. in units 2pi/alat
        k(    1) = (   0.0000000   0.0000000   0.0000000), wk =   0.2500000
        k(    2) = (   0.0000000   0.0000000  -0.5000000), wk =   0.2500000
        k(    3) = (   0.0000000  -0.5000000  -0.5000000), wk =   0.2500000
        k(    4) = (  -0.5000000  -0.5000000  -0.5000000), wk =   0.2500000
        k(    5) = (  -0.5000000   0.0000000   0.0000000), wk =   0.2500000
        k(    6) = (   0.0000000  -0.5000000   0.0000000), wk =   0.2500000
        k(    7) = (  -0.5000000   0.0000000   0.5000000), wk =   0.2500000
        k(    8) = (  -0.5000000   0.5000000   0.0000000), wk =   0.2500000

     Dense  grid:     4945 G-vectors     FFT dimensions: (  24,  24,  24)

     Smooth grid:     1743 G-vectors     FFT dimensions: (  15,  15,  15)

     Estimated max dynamical RAM per process >       1.74Mb

     Estimated total allocated dynamical RAM >       3.48Mb

     Initial potential from superposition of free atoms

     starting charge   11.99177, renormalised to   12.00000
     Starting wfc are   16 randomized atomic wfcs

     total cpu time spent up to now is        0.0 secs

     Self-consistent Calculation

     iteration #  1     ecut=    10.00 Ry     beta=0.50
     Davidson diagonalization with overlap
     ethr =  1.00E-02,  avg # of iterations =  3.0

     total cpu time spent up to now is        0.1 secs

     total energy              =     -16.43429082 Ry
     Harris-Foulkes estimate   =     -16.52244624 Ry
     estimated scf accuracy    <       0.17734315 Ry

     iteration #  2     ecut=    10.00 Ry     beta=0.50
     Davidson diagonalization with overlap
     ethr =  1.48E-03,  avg # of iterations =  1.9

     total cpu time spent up to now is        0.1 secs

     total energy              =     -16.48100981 Ry
     Harris-Foulkes estimate   =     -16.50228589 Ry
     estimated scf accuracy    <       0.05557867 Ry

     iteration #  3     ecut=    10.00 Ry     beta=0.50
     Davidson diagonalization with overlap
     ethr =  4.63E-04,  avg # of iterations =  1.9

     total cpu time spent up to now is        0.1 secs

     total energy              =     -16.48538323 Ry
     Harris-Foulkes estimate   =     -16.48687809 Ry
     estimated scf accuracy    <       0.00531129 Ry

     iteration #  4     ecut=    10.00 Ry     beta=0.50
     Davidson diagonalization with overlap
     ethr =  4.43E-05,  avg # of iterations =  3.6

     total cpu time spent up to now is        0.1 secs

     total energy              =     -16.48608993 Ry
     Harris-Foulkes estimate   =     -16.48704665 Ry
     estimated scf accuracy    <       0.00290585 Ry

     iteration #  5     ecut=    10.00 Ry     beta=0.50
     Davidson diagonalization with overlap
     ethr =  2.42E-05,  avg # of iterations =  1.1

     total cpu time spent up to now is        0.1 secs

     total energy              =     -16.48633479 Ry
     Harris-Foulkes estimate   =     -16.48640206 Ry
     estimated scf accuracy    <       0.00014235 Ry

     iteration #  6     ecut=    10.00 Ry     beta=0.50
     Davidson diagonalization with overlap
     ethr =  1.19E-06,  avg # of iterations =  3.4

     total cpu time spent up to now is        0.1 secs

     total energy              =     -16.48637905 Ry
     Harris-Foulkes estimate   =     -16.48638504 Ry
     estimated scf accuracy    <       0.00001732 Ry

     iteration #  7     ecut=    10.00 Ry     beta=0.50
     Davidson diagonalization with overlap
     ethr =  1.44E-07,  avg # of iterations =  1.4

     total cpu time spent up to now is        0.2 secs

     total energy              =     -16.48638099 Ry
     Harris-Foulkes estimate   =     -16.48638119 Ry
     estimated scf accuracy    <       0.00000067 Ry

     iteration #  8     ecut=    10.00 Ry     beta=0.50
     Davidson diagonalization with overlap
     ethr =  5.56E-09,  avg # of iterations =  1.9

     total cpu time spent up to now is        0.2 secs

     End of self-consistent calculation

          k = 0.0000 0.0000 0.0000 (   203 PWs)   bands (ev):

    -3.0737   5.5902   5.7202   5.7813   7.1010   7.1858   7.2305  13.8539
    13.9967  14.1239

          k = 0.0000 0.0000-0.5000 (   216 PWs)   bands (ev):

    -1.0919  -0.1034   7.2059   7.3260   8.3016   8.4093   8.7660   8.8562
    10.5919  10.6002

          k = 0.0000-0.5000-0.5000 (   228 PWs)   bands (ev):

     0.8315   1.6991   1.8536   2.6827   8.9430  10.0131  10.1664  10.9433
    11.3457  11.8613

          k =-0.5000-0.5000-0.5000 (   208 PWs)   bands (ev):

     2.6484   3.5439   3.6859   3.6911   4.6169   4.6970   4.7590   5.5997
    19.3726  19.5332

          k =-0.5000 0.0000 0.0000 (   216 PWs)   bands (ev):

    -1.0964  -0.1043   7.2178   7.3350   8.3779   8.4915   8.6478   8.7352
    10.6158  10.6349

          k = 0.0000-0.5000 0.0000 (   216 PWs)   bands (ev):

    -1.0308  -0.1892   7.2983   7.4599   8.3210   8.4420   8.5902   8.7279
    10.5238  10.6147

          k =-0.5000 0.0000 0.5000 (   228 PWs)   bands (ev):

     0.7596   1.7832   1.8125   2.7552   8.8039  10.0656  10.1299  10.9716
    11.3579  11.8425

          k =-0.5000 0.5000 0.0000 (   228 PWs)   bands (ev):

     0.8245   1.7076   1.8358   2.7031   8.9105  10.0274  10.1736  10.9531
    11.3824  11.7981

     the Fermi energy is     8.6997 ev

!    total energy              =     -16.48638111 Ry
     Harris-Foulkes estimate   =     -16.48638113 Ry
     estimated scf accuracy    <       0.00000004 Ry

     The total energy is the sum of the following terms:

     one-electron contribution =      12.08054397 Ry
     hartree contribution      =       0.21373222 Ry
     xc contribution           =      -6.68493701 Ry
     ewald contribution        =     -22.09387217 Ry
     smearing contrib. (-TS)   =      -0.00184813 Ry

     convergence has been achieved in   8 iterations

     Forces acting on atoms (Ry/au):

     atom    1 type  1   force =    -0.04133317   -0.04972038   -0.04659232
     atom    2 type  1   force =    -0.08101083    0.06542206    0.06876164
     atom    3 type  1   force =     0.04661754   -0.05579716    0.05162819
     atom    4 type  1   force =     0.07572645    0.04009548   -0.07379750

     Total force =     0.206549     Total SCF correction =     0.000126


     entering subroutine stress ...

          total   stress  (Ry/bohr**3)                   (kbar)     P=   43.40
   0.00021700   0.00004494   0.00000413         31.92      6.61      0.61
   0.00004494   0.00024095  -0.00004596          6.61     35.44     -6.76
   0.00000413  -0.00004596   0.00042707          0.61     -6.76     62.82


     Writing output data file Al.save

     init_run     :      0.02s CPU      0.02s WALL (       1 calls)
     electrons    :      0.14s CPU      0.15s WALL (       1 calls)
     forces       :      0.00s CPU      0.00s WALL (       1 calls)
     stress       :      0.01s CPU      0.01s WALL (       1 calls)

     Called by init_run:
     wfcinit      :      0.01s CPU      0.01s WALL (       1 calls)
     potinit      :      0.00s CPU      0.00s WALL (       1 calls)

     Called by electrons:
     c_bands      :      0.11s CPU      0.12s WALL (       8 calls)
     sum_band     :      0.02s CPU      0.02s WALL (       8 calls)
     v_of_rho     :      0.00s CPU      0.00s WALL (       9 calls)
     mix_rho      :      0.00s CPU      0.00s WALL (       8 calls)

     Called by c_bands:
     init_us_2    :      0.00s CPU      0.00s WALL (     152 calls)
     cegterg      :      0.11s CPU      0.12s WALL (      64 calls)

     Called by sum_band:

     Called by *egterg:
     h_psi        :      0.07s CPU      0.08s WALL (     217 calls)
     g_psi        :      0.00s CPU      0.00s WALL (     145 calls)
     cdiaghg      :      0.03s CPU      0.03s WALL (     209 calls)

     Called by h_psi:
     h_psi:pot    :      0.07s CPU      0.08s WALL (     217 calls)
     h_psi:calbec :      0.00s CPU      0.00s WALL (     217 calls)
     vloc_psi     :      0.06s CPU      0.06s WALL (     217 calls)
     add_vuspsi   :      0.01s CPU      0.01s WALL (     217 calls)

     General routines
     calbec       :      0.00s CPU      0.01s WALL (     257 calls)
     fft          :      0.01s CPU      0.01s WALL (      64 calls)
     ffts         :      0.00s CPU      0.00s WALL (      17 calls)
     fftw         :      0.05s CPU      0.06s WALL (    3998 calls)
     interpolate  :      0.00s CPU      0.00s WALL (      17 calls)
     davcio       :      0.00s CPU      0.00s WALL (       8 calls)

     Parallel routines
     fft_scatter  :      0.02s CPU      0.02s WALL (    4079 calls)

     PWSCF        :     0.19s CPU         0.23s WALL


   This run was terminated on:  16: 6:38  19Mar2019            

=------------------------------------------------------------------------------=
   JOB DONE.
=------------------------------------------------------------------------------=
