
     Program PWSCF v.6.0 (svn rev. 13079) starts on 17Sep2018 at 15:44:35 

     This program is part of the open-source Quantum ESPRESSO suite
     for quantum simulation of materials; please cite
         "P. Giannozzi et al., J. Phys.:Condens. Matter 21 395502 (2009);
          URL http://www.quantum-espresso.org", 
     in publications or presentations arising from this work. More details at
     http://www.quantum-espresso.org/quote

     Parallel version (MPI), running on     1 processors
     Waiting for input...
     Reading input from standard input

     Current dimensions of program PWSCF are:
     Max number of different atomic species (ntypx) = 10
     Max number of k-points (npk) =  40000
     Max angular momentum in pseudopotentials (lmaxx) =  3
               file C.pz-rrkjus.UPF: wavefunction(s)  2S renormalized

     Subspace diagonalization in iterative solution of the eigenvalue problem:
     a serial algorithm will be used


     G-vector sticks info
     --------------------
     sticks:   dense  smooth     PW     G-vecs:    dense   smooth      PW
     Sum         109     109     37                  701      701     169



     bravais-lattice index     =            0
     lattice parameter (alat)  =       4.5432  a.u.
     unit-cell volume          =      66.3091 (a.u.)^3
     number of atoms/cell      =            2
     number of atomic types    =            1
     number of electrons       =         8.00
     number of Kohn-Sham states=            4
     kinetic-energy cutoff     =      18.0000  Ry
     charge density cutoff     =      72.0000  Ry
     convergence threshold     =      1.0E-10
     mixing beta               =       0.7000
     number of iterations used =            8  plain     mixing
     Exchange-correlation      =  SLA  PZ   NOGX NOGC ( 1  1  0  0 0 0)
     nstep                     =           50


     celldm(1)=   4.543210  celldm(2)=   0.000000  celldm(3)=   0.000000
     celldm(4)=   0.000000  celldm(5)=   0.000000  celldm(6)=   0.000000

     crystal axes: (cart. coord. in units of alat)
               a(1) = (   0.000000   0.707107   0.707107 )  
               a(2) = (   0.707107   0.000000   0.707107 )  
               a(3) = (   0.707107   0.707107   0.000000 )  

     reciprocal axes: (cart. coord. in units 2 pi/alat)
               b(1) = ( -0.707107  0.707107  0.707107 )  
               b(2) = (  0.707107 -0.707107  0.707107 )  
               b(3) = (  0.707107  0.707107 -0.707107 )  


     PseudoPot. # 1 for C  read from file:
     /Users/jonpvandermause/AP275/qe-6.0/pseudo/C.pz-rrkjus.UPF
     MD5 check sum: 53020fac754469c285cb7b8c67c09e81
     Pseudo is Ultrasoft, Zval =  4.0
     Generated by new atomic code, or converted to UPF format
     Using radial grid of 1425 points,  4 beta functions with: 
                l(1) =   0
                l(2) =   0
                l(3) =   1
                l(4) =   1
     Q(r) pseudized with 0 coefficients 


     atomic species   valence    mass     pseudopotential
        C              4.00    12.01100     C ( 1.00)

     24 Sym. Ops. (no inversion) found
          (note: 24 additional sym.ops. were found but ignored
           their fractional translations are incommensurate with FFT grid)


   Cartesian axes

     site n.     atom                  positions (alat units)
         1           C   tau(   1) = (   0.0000000   0.0000000   0.0000000  )
         2           C   tau(   2) = (   0.3535534   0.3535534   0.3535534  )

     number of k points=     8
                       cart. coord. in units 2pi/alat
        k(    1) = (   0.0000000   0.0000000   0.0000000), wk =   0.0312500
        k(    2) = (   0.1767767   0.1767767  -0.1767767), wk =   0.2500000
        k(    3) = (  -0.3535534  -0.3535534   0.3535534), wk =   0.1250000
        k(    4) = (   0.3535534   0.0000000   0.0000000), wk =   0.1875000
        k(    5) = (  -0.1767767  -0.5303301   0.5303301), wk =   0.7500000
        k(    6) = (   0.0000000  -0.3535534   0.3535534), wk =   0.3750000
        k(    7) = (  -0.7071068   0.0000000   0.0000000), wk =   0.0937500
        k(    8) = (  -0.7071068   0.3535534   0.0000000), wk =   0.1875000

     Dense  grid:      701 G-vectors     FFT dimensions: (  15,  15,  15)

     Estimated max dynamical RAM per process >       0.63Mb

     Initial potential from superposition of free atoms

     starting charge    7.99992, renormalised to    8.00000
     Starting wfc are    8 randomized atomic wfcs

     total cpu time spent up to now is        0.2 secs

     Self-consistent Calculation

     iteration #  1     ecut=    18.00 Ry     beta=0.70
     Davidson diagonalization with overlap
     ethr =  1.00E-02,  avg # of iterations =  2.0

     total cpu time spent up to now is        0.3 secs

     total energy              =     -22.67633644 Ry
     Harris-Foulkes estimate   =     -22.76167288 Ry
     estimated scf accuracy    <       0.15959481 Ry

     iteration #  2     ecut=    18.00 Ry     beta=0.70
     Davidson diagonalization with overlap
     ethr =  1.99E-03,  avg # of iterations =  1.6

     total cpu time spent up to now is        0.3 secs

     total energy              =     -22.68863265 Ry
     Harris-Foulkes estimate   =     -22.68968911 Ry
     estimated scf accuracy    <       0.00292182 Ry

     iteration #  3     ecut=    18.00 Ry     beta=0.70
     Davidson diagonalization with overlap
     ethr =  3.65E-05,  avg # of iterations =  2.0

     total cpu time spent up to now is        0.3 secs

     total energy              =     -22.68933934 Ry
     Harris-Foulkes estimate   =     -22.68935541 Ry
     estimated scf accuracy    <       0.00004591 Ry

     iteration #  4     ecut=    18.00 Ry     beta=0.70
     Davidson diagonalization with overlap
     ethr =  5.74E-07,  avg # of iterations =  2.6

     total cpu time spent up to now is        0.3 secs

     total energy              =     -22.68936009 Ry
     Harris-Foulkes estimate   =     -22.68936187 Ry
     estimated scf accuracy    <       0.00000351 Ry

     iteration #  5     ecut=    18.00 Ry     beta=0.70
     Davidson diagonalization with overlap
     ethr =  4.39E-08,  avg # of iterations =  2.0

     total cpu time spent up to now is        0.3 secs

     total energy              =     -22.68936084 Ry
     Harris-Foulkes estimate   =     -22.68936086 Ry
     estimated scf accuracy    <       0.00000005 Ry

     iteration #  6     ecut=    18.00 Ry     beta=0.70
     Davidson diagonalization with overlap
     ethr =  6.26E-10,  avg # of iterations =  2.5

     total cpu time spent up to now is        0.3 secs

     total energy              =     -22.68936085 Ry
     Harris-Foulkes estimate   =     -22.68936086 Ry
     estimated scf accuracy    <          4.9E-09 Ry

     iteration #  7     ecut=    18.00 Ry     beta=0.70
     Davidson diagonalization with overlap
     ethr =  6.18E-11,  avg # of iterations =  2.2

     total cpu time spent up to now is        0.3 secs

     total energy              =     -22.68936085 Ry
     Harris-Foulkes estimate   =     -22.68936085 Ry
     estimated scf accuracy    <          1.6E-09 Ry

     iteration #  8     ecut=    18.00 Ry     beta=0.70
     Davidson diagonalization with overlap
     ethr =  1.97E-11,  avg # of iterations =  2.2

     total cpu time spent up to now is        0.3 secs

     End of self-consistent calculation

          k = 0.0000 0.0000 0.0000 (    65 PWs)   bands (ev):

    -7.5149  17.5603  17.5603  17.5603

          k = 0.1768 0.1768-0.1768 (    83 PWs)   bands (ev):

    -5.6238   8.7623  14.3432  14.3432

          k =-0.3536-0.3536 0.3536 (    90 PWs)   bands (ev):

    -0.8135   0.8615  12.8141  12.8141

          k = 0.3536 0.0000 0.0000 (    84 PWs)   bands (ev):

    -4.9856  11.3605  11.3605  11.3960

          k =-0.1768-0.5303 0.5303 (    89 PWs)   bands (ev):

    -0.7874   4.0756   8.5526  10.5089

          k = 0.0000-0.3536 0.3536 (    89 PWs)   bands (ev):

    -2.5491   6.5634   7.3165  12.7138

          k =-0.7071 0.0000 0.0000 (    92 PWs)   bands (ev):

     2.1291   2.1291   8.8090   8.8090

          k =-0.7071 0.3536 0.0000 (    84 PWs)   bands (ev):

     3.2963   3.2963   6.3745   6.3745

     highest occupied level (ev):    17.5603

!    total energy              =     -22.68936085 Ry
     Harris-Foulkes estimate   =     -22.68936085 Ry
     estimated scf accuracy    <          4.8E-11 Ry

     The total energy is the sum of the following terms:

     one-electron contribution =       9.70331781 Ry
     hartree contribution      =       1.74925151 Ry
     xc contribution           =      -7.31302888 Ry
     ewald contribution        =     -26.82890129 Ry

     convergence has been achieved in   8 iterations

     Forces acting on atoms (Ry/au):

     atom    1 type  1   force =    -0.00000000   -0.00000000    0.00000000
     atom    2 type  1   force =     0.00000000    0.00000000   -0.00000000

     Total force =     0.000000     Total SCF correction =     0.000000


     entering subroutine stress ...

          total   stress  (Ry/bohr**3)                   (kbar)     P= -425.57
  -0.00289299  -0.00000000   0.00000000       -425.57     -0.00      0.00
   0.00000000  -0.00289299   0.00000000          0.00   -425.57      0.00
  -0.00000000   0.00000000  -0.00289299         -0.00      0.00   -425.57


     BFGS Geometry Optimization

     number of scf cycles    =   1
     number of bfgs steps    =   0

     enthalpy new            =     -22.6893608543 Ry

     new trust radius        =       0.1177886132 bohr
     new conv_thr            =            1.0E-10 Ry

     new unit-cell volume =     52.93725 a.u.^3 (     7.84449 Ang^3 )

CELL_PARAMETERS (angstrom)
  -0.000000000   1.577048012   1.577048012
   1.577048012   0.000000000   1.577048012
   1.577048012   1.577048012   0.000000000

ATOMIC_POSITIONS (angstrom)
C       -0.000000000  -0.000000000   0.000000000
C        0.788524006   0.788524006   0.788524006



     Writing output data file pwscf.save
     NEW-OLD atomic charge density approx. for the potential
     extrapolated charge    5.97923, renormalised to    8.00000

     total cpu time spent up to now is        0.4 secs

     Self-consistent Calculation

     iteration #  1     ecut=    18.00 Ry     beta=0.70
     Davidson diagonalization with overlap
     ethr =  1.00E-06,  avg # of iterations =  5.0

     total cpu time spent up to now is        0.4 secs

     total energy              =     -22.58123212 Ry
     Harris-Foulkes estimate   =     -20.90382302 Ry
     estimated scf accuracy    <       0.03443988 Ry

     iteration #  2     ecut=    18.00 Ry     beta=0.70
     Davidson diagonalization with overlap
     ethr =  4.30E-04,  avg # of iterations =  2.9

     total cpu time spent up to now is        0.5 secs

     total energy              =     -22.62787030 Ry
     Harris-Foulkes estimate   =     -22.63242273 Ry
     estimated scf accuracy    <       0.01096347 Ry

     iteration #  3     ecut=    18.00 Ry     beta=0.70
     Davidson diagonalization with overlap
     ethr =  1.37E-04,  avg # of iterations =  1.0

     total cpu time spent up to now is        0.5 secs

     total energy              =     -22.62713440 Ry
     Harris-Foulkes estimate   =     -22.62828148 Ry
     estimated scf accuracy    <       0.00202613 Ry

     iteration #  4     ecut=    18.00 Ry     beta=0.70
     Davidson diagonalization with overlap
     ethr =  2.53E-05,  avg # of iterations =  2.0

     total cpu time spent up to now is        0.5 secs

     total energy              =     -22.62746906 Ry
     Harris-Foulkes estimate   =     -22.62750733 Ry
     estimated scf accuracy    <       0.00009813 Ry

     iteration #  5     ecut=    18.00 Ry     beta=0.70
     Davidson diagonalization with overlap
     ethr =  1.23E-06,  avg # of iterations =  1.0

     total cpu time spent up to now is        0.5 secs

     total energy              =     -22.62746644 Ry
     Harris-Foulkes estimate   =     -22.62747412 Ry
     estimated scf accuracy    <       0.00002340 Ry

     iteration #  6     ecut=    18.00 Ry     beta=0.70
     Davidson diagonalization with overlap
     ethr =  2.92E-07,  avg # of iterations =  1.2

     total cpu time spent up to now is        0.5 secs

     total energy              =     -22.62746324 Ry
     Harris-Foulkes estimate   =     -22.62746755 Ry
     estimated scf accuracy    <       0.00000737 Ry

     iteration #  7     ecut=    18.00 Ry     beta=0.70
     Davidson diagonalization with overlap
     ethr =  9.22E-08,  avg # of iterations =  2.0

     total cpu time spent up to now is        0.5 secs

     total energy              =     -22.62746442 Ry
     Harris-Foulkes estimate   =     -22.62746448 Ry
     estimated scf accuracy    <       0.00000017 Ry

     iteration #  8     ecut=    18.00 Ry     beta=0.70
     Davidson diagonalization with overlap
     ethr =  2.07E-09,  avg # of iterations =  2.0

     total cpu time spent up to now is        0.5 secs

     total energy              =     -22.62746442 Ry
     Harris-Foulkes estimate   =     -22.62746443 Ry
     estimated scf accuracy    <       0.00000003 Ry

     iteration #  9     ecut=    18.00 Ry     beta=0.70
     Davidson diagonalization with overlap
     ethr =  4.30E-10,  avg # of iterations =  1.0

     total cpu time spent up to now is        0.5 secs

     total energy              =     -22.62746442 Ry
     Harris-Foulkes estimate   =     -22.62746443 Ry
     estimated scf accuracy    <       0.00000001 Ry

     iteration # 10     ecut=    18.00 Ry     beta=0.70
     Davidson diagonalization with overlap
     ethr =  1.73E-10,  avg # of iterations =  1.9

     total cpu time spent up to now is        0.5 secs

     End of self-consistent calculation

          k = 0.0000 0.0000 0.0000 (    65 PWs)   bands (ev):

    -6.1199  21.7339  21.7339  21.7339

          k = 0.1906 0.1906-0.1906 (    83 PWs)   bands (ev):

    -3.9554  12.2652  18.5057  18.5057

          k =-0.3811-0.3811 0.3811 (    90 PWs)   bands (ev):

     2.1862   2.6293  16.9125  16.9125

          k = 0.3811 0.0000 0.0000 (    84 PWs)   bands (ev):

    -3.2288  14.9540  14.9540  15.8419

          k =-0.1906-0.5717 0.5717 (    89 PWs)   bands (ev):

     1.6847   6.9609  12.0294  13.9590

          k = 0.0000-0.3811 0.3811 (    89 PWs)   bands (ev):

    -0.4042   9.9922  10.4081  16.6382

          k =-0.7622 0.0000 0.0000 (    92 PWs)   bands (ev):

     5.0704   5.0704  11.9482  11.9482

          k =-0.7622 0.3811 0.0000 (    84 PWs)   bands (ev):

     6.7708   6.7709   8.7631   8.7631

     highest occupied level (ev):    21.7339

!    total energy              =     -22.62746442 Ry
     Harris-Foulkes estimate   =     -22.62746442 Ry
     estimated scf accuracy    <          4.8E-11 Ry

     The total energy is the sum of the following terms:

     one-electron contribution =      12.44832211 Ry
     hartree contribution      =       1.58509144 Ry
     xc contribution           =      -7.74030504 Ry
     ewald contribution        =     -28.92057293 Ry

     convergence has been achieved in  10 iterations

     Forces acting on atoms (Ry/au):

     atom    1 type  1   force =     0.00000000    0.00000000    0.00000000
     atom    2 type  1   force =     0.00000000    0.00000000    0.00000000

     Total force =     0.000000     Total SCF correction =     0.000000


     entering subroutine stress ...

          total   stress  (Ry/bohr**3)                   (kbar)     P= 2123.52
   0.01443536   0.00000000   0.00000000       2123.52      0.00      0.00
   0.00000000   0.01443536   0.00000000          0.00   2123.52      0.00
   0.00000000   0.00000000   0.01443536          0.00      0.00   2123.52


     number of scf cycles    =   2
     number of bfgs steps    =   1

     enthalpy old            =     -22.6893608543 Ry
     enthalpy new            =     -22.6274644193 Ry

     CASE: enthalpy_new > enthalpy_old

     new trust radius        =       0.0228075956 bohr
     new conv_thr            =            1.0E-10 Ry

     new unit-cell volume =     63.45858 a.u.^3 (     9.40359 Ang^3 )

CELL_PARAMETERS (angstrom)
  -0.000000000   1.675281976   1.675281976
   1.675281976   0.000000000   1.675281976
   1.675281976   1.675281976   0.000000000

ATOMIC_POSITIONS (angstrom)
C       -0.000000000  -0.000000000   0.000000000
C        0.837640988   0.837640988   0.837640988



     Writing output data file pwscf.save
     NEW-OLD atomic charge density approx. for the potential
     extrapolated charge    9.32637, renormalised to    8.00000

     total cpu time spent up to now is        0.6 secs

     Self-consistent Calculation

     iteration #  1     ecut=    18.00 Ry     beta=0.70
     Davidson diagonalization with overlap
     ethr =  1.00E-06,  avg # of iterations =  4.2

     total cpu time spent up to now is        0.7 secs

     total energy              =     -22.67298682 Ry
     Harris-Foulkes estimate   =     -23.74155857 Ry
     estimated scf accuracy    <       0.00588347 Ry

     iteration #  2     ecut=    18.00 Ry     beta=0.70
     Davidson diagonalization with overlap
     ethr =  7.35E-05,  avg # of iterations =  2.9

     total cpu time spent up to now is        0.7 secs

     total energy              =     -22.69499182 Ry
     Harris-Foulkes estimate   =     -22.69761970 Ry
     estimated scf accuracy    <       0.00769473 Ry

     iteration #  3     ecut=    18.00 Ry     beta=0.70
     Davidson diagonalization with overlap
     ethr =  7.35E-05,  avg # of iterations =  1.0

     total cpu time spent up to now is        0.7 secs

     total energy              =     -22.69355305 Ry
     Harris-Foulkes estimate   =     -22.69515452 Ry
     estimated scf accuracy    <       0.00260556 Ry

     iteration #  4     ecut=    18.00 Ry     beta=0.70
     Davidson diagonalization with overlap
     ethr =  3.26E-05,  avg # of iterations =  2.0

     total cpu time spent up to now is        0.7 secs

     total energy              =     -22.69393260 Ry
     Harris-Foulkes estimate   =     -22.69400278 Ry
     estimated scf accuracy    <       0.00012881 Ry

     iteration #  5     ecut=    18.00 Ry     beta=0.70
     Davidson diagonalization with overlap
     ethr =  1.61E-06,  avg # of iterations =  1.9

     total cpu time spent up to now is        0.7 secs

     total energy              =     -22.69394438 Ry
     Harris-Foulkes estimate   =     -22.69394534 Ry
     estimated scf accuracy    <       0.00000206 Ry

     iteration #  6     ecut=    18.00 Ry     beta=0.70
     Davidson diagonalization with overlap
     ethr =  2.57E-08,  avg # of iterations =  2.0

     total cpu time spent up to now is        0.7 secs

     total energy              =     -22.69394461 Ry
     Harris-Foulkes estimate   =     -22.69394470 Ry
     estimated scf accuracy    <       0.00000021 Ry

     iteration #  7     ecut=    18.00 Ry     beta=0.70
     Davidson diagonalization with overlap
     ethr =  2.62E-09,  avg # of iterations =  1.2

     total cpu time spent up to now is        0.7 secs

     total energy              =     -22.69394461 Ry
     Harris-Foulkes estimate   =     -22.69394462 Ry
     estimated scf accuracy    <       0.00000002 Ry

     iteration #  8     ecut=    18.00 Ry     beta=0.70
     Davidson diagonalization with overlap
     ethr =  2.16E-10,  avg # of iterations =  2.0

     total cpu time spent up to now is        0.7 secs

     End of self-consistent calculation

          k = 0.0000 0.0000 0.0000 (    65 PWs)   bands (ev):

    -7.2656  18.3014  18.3014  18.3014

          k = 0.1794 0.1794-0.1794 (    83 PWs)   bands (ev):

    -5.3220   9.3937  15.0870  15.0870

          k =-0.3588-0.3588 0.3588 (    90 PWs)   bands (ev):

    -0.2739   1.1834  13.5510  13.5510

          k = 0.3588 0.0000 0.0000 (    84 PWs)   bands (ev):

    -4.6676  12.0045  12.0045  12.2034

          k =-0.1794-0.5382 0.5382 (    89 PWs)   bands (ev):

    -0.3308   4.5978   9.1735  11.1269

          k = 0.0000-0.3588 0.3588 (    89 PWs)   bands (ev):

    -2.1554   7.1885   7.8652  13.4162

          k =-0.7175 0.0000 0.0000 (    92 PWs)   bands (ev):

     2.6684   2.6685   9.3721   9.3721

          k =-0.7175 0.3588 0.0000 (    84 PWs)   bands (ev):

     3.9257   3.9258   6.8033   6.8033

     highest occupied level (ev):    18.3014

!    total energy              =     -22.69394461 Ry
     Harris-Foulkes estimate   =     -22.69394461 Ry
     estimated scf accuracy    <          7.0E-11 Ry

     The total energy is the sum of the following terms:

     one-electron contribution =      10.20669845 Ry
     hartree contribution      =       1.71770525 Ry
     xc contribution           =      -7.39359870 Ry
     ewald contribution        =     -27.22474961 Ry

     convergence has been achieved in   8 iterations

     Forces acting on atoms (Ry/au):

     atom    1 type  1   force =     0.00000000    0.00000000    0.00000000
     atom    2 type  1   force =     0.00000000    0.00000000   -0.00000000

     Total force =     0.000000     Total SCF correction =     0.000000


     entering subroutine stress ...

          total   stress  (Ry/bohr**3)                   (kbar)     P=  -38.45
  -0.00026139  -0.00000000  -0.00000000        -38.45     -0.00     -0.00
   0.00000000  -0.00026139  -0.00000000          0.00    -38.45     -0.00
  -0.00000000  -0.00000000  -0.00026139         -0.00     -0.00    -38.45


     number of scf cycles    =   3
     number of bfgs steps    =   1

     enthalpy old            =     -22.6893608543 Ry
     enthalpy new            =     -22.6939446145 Ry

     CASE: enthalpy_new < enthalpy_old

     new trust radius        =       0.0022610444 bohr
     new conv_thr            =            1.0E-12 Ry

     new unit-cell volume =     63.18879 a.u.^3 (     9.36361 Ang^3 )

CELL_PARAMETERS (angstrom)
  -0.000000000   1.672904469   1.672904469
   1.672904469   0.000000000   1.672904469
   1.672904469   1.672904469  -0.000000000

ATOMIC_POSITIONS (angstrom)
C       -0.000000000  -0.000000000   0.000000000
C        0.836452234   0.836452234   0.836452234



     Writing output data file pwscf.save
     NEW-OLD atomic charge density approx. for the potential
     extrapolated charge    7.96584, renormalised to    8.00000

     total cpu time spent up to now is        0.8 secs

     Self-consistent Calculation

     iteration #  1     ecut=    18.00 Ry     beta=0.70
     Davidson diagonalization with overlap
     ethr =  1.00E-06,  avg # of iterations =  2.0

     Threshold (ethr) on eigenvalues was too large:
     Diagonalizing with lowered threshold

     Davidson diagonalization with overlap
     ethr =  9.50E-08,  avg # of iterations =  1.0

     total cpu time spent up to now is        0.8 secs

     total energy              =     -22.69396321 Ry
     Harris-Foulkes estimate   =     -22.66729510 Ry
     estimated scf accuracy    <       0.00000753 Ry

     iteration #  2     ecut=    18.00 Ry     beta=0.70
     Davidson diagonalization with overlap
     ethr =  9.42E-08,  avg # of iterations =  2.8

     total cpu time spent up to now is        0.8 secs

     total energy              =     -22.69397882 Ry
     Harris-Foulkes estimate   =     -22.69398057 Ry
     estimated scf accuracy    <       0.00000452 Ry

     iteration #  3     ecut=    18.00 Ry     beta=0.70
     Davidson diagonalization with overlap
     ethr =  5.65E-08,  avg # of iterations =  1.0

     total cpu time spent up to now is        0.9 secs

     total energy              =     -22.69397832 Ry
     Harris-Foulkes estimate   =     -22.69397897 Ry
     estimated scf accuracy    <       0.00000110 Ry

     iteration #  4     ecut=    18.00 Ry     beta=0.70
     Davidson diagonalization with overlap
     ethr =  1.37E-08,  avg # of iterations =  2.0

     total cpu time spent up to now is        0.9 secs

     total energy              =     -22.69397848 Ry
     Harris-Foulkes estimate   =     -22.69397850 Ry
     estimated scf accuracy    <       0.00000003 Ry

     iteration #  5     ecut=    18.00 Ry     beta=0.70
     Davidson diagonalization with overlap
     ethr =  4.31E-10,  avg # of iterations =  1.5

     total cpu time spent up to now is        0.9 secs

     total energy              =     -22.69397848 Ry
     Harris-Foulkes estimate   =     -22.69397848 Ry
     estimated scf accuracy    <          4.8E-09 Ry

     iteration #  6     ecut=    18.00 Ry     beta=0.70
     Davidson diagonalization with overlap
     ethr =  5.97E-11,  avg # of iterations =  1.0

     total cpu time spent up to now is        0.9 secs

     total energy              =     -22.69397848 Ry
     Harris-Foulkes estimate   =     -22.69397848 Ry
     estimated scf accuracy    <          5.0E-09 Ry

     iteration #  7     ecut=    18.00 Ry     beta=0.70
     Davidson diagonalization with overlap
     ethr =  5.97E-11,  avg # of iterations =  1.0

     total cpu time spent up to now is        0.9 secs

     total energy              =     -22.69397848 Ry
     Harris-Foulkes estimate   =     -22.69397848 Ry
     estimated scf accuracy    <          4.6E-10 Ry

     iteration #  8     ecut=    18.00 Ry     beta=0.70
     Davidson diagonalization with overlap
     ethr =  5.74E-12,  avg # of iterations =  2.0

     total cpu time spent up to now is        0.9 secs

     total energy              =     -22.69397848 Ry
     Harris-Foulkes estimate   =     -22.69397848 Ry
     estimated scf accuracy    <          6.1E-11 Ry

     iteration #  9     ecut=    18.00 Ry     beta=0.70
     Davidson diagonalization with overlap
     ethr =  7.68E-13,  avg # of iterations =  2.0

     total cpu time spent up to now is        0.9 secs

     total energy              =     -22.69397848 Ry
     Harris-Foulkes estimate   =     -22.69397848 Ry
     estimated scf accuracy    <          6.6E-12 Ry

     iteration # 10     ecut=    18.00 Ry     beta=0.70
     Davidson diagonalization with overlap
     ethr =  1.00E-13,  avg # of iterations =  1.0

     total cpu time spent up to now is        0.9 secs

     total energy              =     -22.69397848 Ry
     Harris-Foulkes estimate   =     -22.69397848 Ry
     estimated scf accuracy    <          6.7E-12 Ry

     iteration # 11     ecut=    18.00 Ry     beta=0.70
     Davidson diagonalization with overlap
     ethr =  1.00E-13,  avg # of iterations =  1.0

     total cpu time spent up to now is        0.9 secs

     total energy              =     -22.69397848 Ry
     Harris-Foulkes estimate   =     -22.69397848 Ry
     estimated scf accuracy    <          9.9E-12 Ry

     iteration # 12     ecut=    18.00 Ry     beta=0.70
     Davidson diagonalization with overlap
     ethr =  1.00E-13,  avg # of iterations =  1.0

     total cpu time spent up to now is        0.9 secs

     total energy              =     -22.69397848 Ry
     Harris-Foulkes estimate   =     -22.69397848 Ry
     estimated scf accuracy    <          1.9E-11 Ry

     iteration # 13     ecut=    18.00 Ry     beta=0.70
     Davidson diagonalization with overlap
     ethr =  1.00E-13,  avg # of iterations =  1.0

     total cpu time spent up to now is        0.9 secs

     total energy              =     -22.69397848 Ry
     Harris-Foulkes estimate   =     -22.69397848 Ry
     estimated scf accuracy    <          2.1E-11 Ry

     iteration # 14     ecut=    18.00 Ry     beta=0.70
     Davidson diagonalization with overlap
     ethr =  1.00E-13,  avg # of iterations =  1.0

     total cpu time spent up to now is        0.9 secs

     total energy              =     -22.69397848 Ry
     Harris-Foulkes estimate   =     -22.69397848 Ry
     estimated scf accuracy    <          1.7E-11 Ry

     iteration # 15     ecut=    18.00 Ry     beta=0.70
     Davidson diagonalization with overlap
     ethr =  1.00E-13,  avg # of iterations =  2.0

     total cpu time spent up to now is        1.0 secs

     End of self-consistent calculation

          k = 0.0000 0.0000 0.0000 (    65 PWs)   bands (ev):

    -7.2409  18.3750  18.3750  18.3750

          k = 0.1796 0.1796-0.1796 (    83 PWs)   bands (ev):

    -5.2921   9.4562  15.1609  15.1609

          k =-0.3593-0.3593 0.3593 (    90 PWs)   bands (ev):

    -0.2205   1.2152  13.6240  13.6240

          k = 0.3593 0.0000 0.0000 (    84 PWs)   bands (ev):

    -4.6362  12.0684  12.0684  12.2832

          k =-0.1796-0.5389 0.5389 (    89 PWs)   bands (ev):

    -0.2859   4.6495   9.2352  11.1882

          k = 0.0000-0.3593 0.3593 (    89 PWs)   bands (ev):

    -2.1166   7.2502   7.9198  13.4859

          k =-0.7186 0.0000 0.0000 (    92 PWs)   bands (ev):

     2.7216   2.7216   9.4280   9.4280

          k =-0.7186 0.3593 0.0000 (    84 PWs)   bands (ev):

     3.9880   3.9880   6.8459   6.8459

     highest occupied level (ev):    18.3750

!    total energy              =     -22.69397848 Ry
     Harris-Foulkes estimate   =     -22.69397848 Ry
     estimated scf accuracy    <          1.4E-13 Ry

     The total energy is the sum of the following terms:

     one-electron contribution =      10.25631837 Ry
     hartree contribution      =       1.71462425 Ry
     xc contribution           =      -7.40148008 Ry
     ewald contribution        =     -27.26344103 Ry

     convergence has been achieved in  15 iterations

     Forces acting on atoms (Ry/au):

     atom    1 type  1   force =     0.00000000   -0.00000000   -0.00000000
     atom    2 type  1   force =     0.00000000    0.00000000    0.00000000

     Total force =     0.000000     Total SCF correction =     0.000000


     entering subroutine stress ...

          total   stress  (Ry/bohr**3)                   (kbar)     P=    1.65
   0.00001122   0.00000000  -0.00000000          1.65      0.00     -0.00
   0.00000000   0.00001122   0.00000000          0.00      1.65      0.00
  -0.00000000   0.00000000   0.00001122         -0.00      0.00      1.65


     number of scf cycles    =   4
     number of bfgs steps    =   2

     enthalpy old            =     -22.6939446145 Ry
     enthalpy new            =     -22.6939784809 Ry

     CASE: enthalpy_new < enthalpy_old

     small trust_radius: resetting bfgs history

     new trust radius        =       0.0001000000 bohr
     new conv_thr            =            1.0E-12 Ry

     new unit-cell volume =     63.20071 a.u.^3 (     9.36538 Ang^3 )

CELL_PARAMETERS (angstrom)
  -0.000000000   1.673009694   1.673009694
   1.673009694   0.000000000   1.673009694
   1.673009694   1.673009694  -0.000000000

ATOMIC_POSITIONS (angstrom)
C       -0.000000000  -0.000000000   0.000000000
C        0.836504847   0.836504847   0.836504847



     Writing output data file pwscf.save
     NEW-OLD atomic charge density approx. for the potential
     extrapolated charge    8.00151, renormalised to    8.00000

     total cpu time spent up to now is        1.1 secs

     Self-consistent Calculation

     iteration #  1     ecut=    18.00 Ry     beta=0.70
     Davidson diagonalization with overlap
     ethr =  1.00E-06,  avg # of iterations =  2.0

     Threshold (ethr) on eigenvalues was too large:
     Diagonalizing with lowered threshold

     Davidson diagonalization with overlap
     ethr =  1.84E-10,  avg # of iterations =  1.2

     total cpu time spent up to now is        1.1 secs

     total energy              =     -22.69397851 Ry
     Harris-Foulkes estimate   =     -22.69515788 Ry
     estimated scf accuracy    <       0.00000001 Ry

     iteration #  2     ecut=    18.00 Ry     beta=0.70
     Davidson diagonalization with overlap
     ethr =  1.82E-10,  avg # of iterations =  2.9

     total cpu time spent up to now is        1.1 secs

     total energy              =     -22.69397854 Ry
     Harris-Foulkes estimate   =     -22.69397855 Ry
     estimated scf accuracy    <          8.9E-09 Ry

     iteration #  3     ecut=    18.00 Ry     beta=0.70
     Davidson diagonalization with overlap
     ethr =  1.11E-10,  avg # of iterations =  1.0

     total cpu time spent up to now is        1.1 secs

     total energy              =     -22.69397854 Ry
     Harris-Foulkes estimate   =     -22.69397854 Ry
     estimated scf accuracy    <          2.2E-09 Ry

     iteration #  4     ecut=    18.00 Ry     beta=0.70
     Davidson diagonalization with overlap
     ethr =  2.71E-11,  avg # of iterations =  2.0

     total cpu time spent up to now is        1.1 secs

     total energy              =     -22.69397854 Ry
     Harris-Foulkes estimate   =     -22.69397854 Ry
     estimated scf accuracy    <          7.1E-11 Ry

     iteration #  5     ecut=    18.00 Ry     beta=0.70
     Davidson diagonalization with overlap
     ethr =  8.89E-13,  avg # of iterations =  1.5

     total cpu time spent up to now is        1.1 secs

     total energy              =     -22.69397854 Ry
     Harris-Foulkes estimate   =     -22.69397854 Ry
     estimated scf accuracy    <          7.0E-12 Ry

     iteration #  6     ecut=    18.00 Ry     beta=0.70
     Davidson diagonalization with overlap
     ethr =  1.00E-13,  avg # of iterations =  1.0

     total cpu time spent up to now is        1.1 secs

     total energy              =     -22.69397854 Ry
     Harris-Foulkes estimate   =     -22.69397854 Ry
     estimated scf accuracy    <          1.0E-12 Ry

     iteration #  7     ecut=    18.00 Ry     beta=0.70
     Davidson diagonalization with overlap
     ethr =  1.00E-13,  avg # of iterations =  1.0

     total cpu time spent up to now is        1.1 secs

     End of self-consistent calculation

          k = 0.0000 0.0000 0.0000 (    65 PWs)   bands (ev):

    -7.2420  18.3717  18.3717  18.3717

          k = 0.1796 0.1796-0.1796 (    83 PWs)   bands (ev):

    -5.2935   9.4534  15.1576  15.1576

          k =-0.3593-0.3593 0.3593 (    90 PWs)   bands (ev):

    -0.2228   1.2138  13.6208  13.6208

          k = 0.3593 0.0000 0.0000 (    84 PWs)   bands (ev):

    -4.6376  12.0656  12.0656  12.2797

          k =-0.1796-0.5389 0.5389 (    89 PWs)   bands (ev):

    -0.2879   4.6472   9.2325  11.1855

          k = 0.0000-0.3593 0.3593 (    89 PWs)   bands (ev):

    -2.1183   7.2475   7.9174  13.4828

          k =-0.7185 0.0000 0.0000 (    92 PWs)   bands (ev):

     2.7192   2.7193   9.4255   9.4255

          k =-0.7185 0.3593 0.0000 (    84 PWs)   bands (ev):

     3.9852   3.9852   6.8440   6.8440

     highest occupied level (ev):    18.3717

!    total energy              =     -22.69397854 Ry
     Harris-Foulkes estimate   =     -22.69397854 Ry
     estimated scf accuracy    <          3.9E-16 Ry

     The total energy is the sum of the following terms:

     one-electron contribution =      10.25411795 Ry
     hartree contribution      =       1.71476042 Ry
     xc contribution           =      -7.40113064 Ry
     ewald contribution        =     -27.26172627 Ry

     convergence has been achieved in   7 iterations

     Forces acting on atoms (Ry/au):

     atom    1 type  1   force =     0.00000000   -0.00000000    0.00000000
     atom    2 type  1   force =     0.00000000    0.00000000    0.00000000

     Total force =     0.000000     Total SCF correction =     0.000000


     entering subroutine stress ...

          total   stress  (Ry/bohr**3)                   (kbar)     P=   -0.14
  -0.00000093  -0.00000000  -0.00000000         -0.14     -0.00     -0.00
  -0.00000000  -0.00000093  -0.00000000         -0.00     -0.14     -0.00
  -0.00000000  -0.00000000  -0.00000093         -0.00     -0.00     -0.14


     bfgs converged in   5 scf cycles and   3 bfgs steps
     (criteria: energy <  1.0E-04, force <  1.0E-03, cell <  5.0E-01)

     End of BFGS Geometry Optimization

     Final enthalpy =     -22.6939785422 Ry
Begin final coordinates
     new unit-cell volume =     63.20071 a.u.^3 (     9.36538 Ang^3 )

CELL_PARAMETERS (angstrom)
  -0.000000000   1.673009694   1.673009694
   1.673009694   0.000000000   1.673009694
   1.673009694   1.673009694  -0.000000000

ATOMIC_POSITIONS (angstrom)
C       -0.000000000  -0.000000000   0.000000000
C        0.836504847   0.836504847   0.836504847
End final coordinates



     A final scf calculation at the relaxed structure.
     The G-vectors are recalculated for the final unit cell
     Results may differ from those at the preceding step.

   Info: using nr1, nr2, nr3 values from input

   Info: using nr1, nr2, nr3 values from input

     G-vector sticks info
     --------------------
     sticks:   dense  smooth     PW     G-vecs:    dense   smooth      PW
     Sum          97      97     37                  645      645     169



     bravais-lattice index     =            0
     lattice parameter (alat)  =       4.5432  a.u.
     unit-cell volume          =      63.2007 (a.u.)^3
     number of atoms/cell      =            2
     number of atomic types    =            1
     number of electrons       =         8.00
     number of Kohn-Sham states=            4
     kinetic-energy cutoff     =      18.0000  Ry
     charge density cutoff     =      72.0000  Ry
     convergence threshold     =      1.0E-12
     mixing beta               =       0.7000
     number of iterations used =            8  plain     mixing
     Exchange-correlation      =  SLA  PZ   NOGX NOGC ( 1  1  0  0 0 0)

     celldm(1)=   4.543210  celldm(2)=   0.000000  celldm(3)=   0.000000
     celldm(4)=   0.000000  celldm(5)=   0.000000  celldm(6)=   0.000000

     crystal axes: (cart. coord. in units of alat)
               a(1) = (  -0.000000   0.695880   0.695880 )  
               a(2) = (   0.695880   0.000000   0.695880 )  
               a(3) = (   0.695880   0.695880  -0.000000 )  

     reciprocal axes: (cart. coord. in units 2 pi/alat)
               b(1) = ( -0.718514  0.718514  0.718514 )  
               b(2) = (  0.718514 -0.718514  0.718514 )  
               b(3) = (  0.718514  0.718514 -0.718514 )  


     PseudoPot. # 1 for C  read from file:
     /Users/jonpvandermause/AP275/qe-6.0/pseudo/C.pz-rrkjus.UPF
     MD5 check sum: 53020fac754469c285cb7b8c67c09e81
     Pseudo is Ultrasoft, Zval =  4.0
     Generated by new atomic code, or converted to UPF format
     Using radial grid of 1425 points,  4 beta functions with: 
                l(1) =   0
                l(2) =   0
                l(3) =   1
                l(4) =   1
     Q(r) pseudized with 0 coefficients 


     atomic species   valence    mass     pseudopotential
        C              4.00    12.01100     C ( 1.00)

     24 Sym. Ops. (no inversion) found
          (note: 24 additional sym.ops. were found but ignored
           their fractional translations are incommensurate with FFT grid)


   Cartesian axes

     site n.     atom                  positions (alat units)
         1           C   tau(   1) = (  -0.0000000  -0.0000000   0.0000000  )
         2           C   tau(   2) = (   0.3479401   0.3479401   0.3479401  )

     number of k points=     8
                       cart. coord. in units 2pi/alat
        k(    1) = (   0.0000000   0.0000000   0.0000000), wk =   0.0312500
        k(    2) = (   0.1796286   0.1796286  -0.1796286), wk =   0.2500000
        k(    3) = (  -0.3592572  -0.3592572   0.3592572), wk =   0.1250000
        k(    4) = (   0.3592572   0.0000000   0.0000000), wk =   0.1875000
        k(    5) = (  -0.1796286  -0.5388858   0.5388858), wk =   0.7500000
        k(    6) = (   0.0000000  -0.3592572   0.3592572), wk =   0.3750000
        k(    7) = (  -0.7185144   0.0000000   0.0000000), wk =   0.0937500
        k(    8) = (  -0.7185144   0.3592572   0.0000000), wk =   0.1875000

     Dense  grid:      645 G-vectors     FFT dimensions: (  15,  15,  15)

     Estimated max dynamical RAM per process >       0.60Mb

     Initial potential from superposition of free atoms

     starting charge    7.99992, renormalised to    8.00000
     Starting wfc are    8 randomized atomic wfcs

     Writing output data file pwscf.save

     total cpu time spent up to now is        1.3 secs

     Self-consistent Calculation

     iteration #  1     ecut=    18.00 Ry     beta=0.70
     Davidson diagonalization with overlap
     ethr =  1.00E-06,  avg # of iterations =  5.4

     total cpu time spent up to now is        1.3 secs

     total energy              =     -22.60719713 Ry
     Harris-Foulkes estimate   =     -22.69909116 Ry
     estimated scf accuracy    <       0.17300522 Ry

     iteration #  2     ecut=    18.00 Ry     beta=0.70
     Davidson diagonalization with overlap
     ethr =  2.16E-03,  avg # of iterations =  1.2

     total cpu time spent up to now is        1.3 secs

     total energy              =     -22.61949940 Ry
     Harris-Foulkes estimate   =     -22.62072415 Ry
     estimated scf accuracy    <       0.00339571 Ry

     iteration #  3     ecut=    18.00 Ry     beta=0.70
     Davidson diagonalization with overlap
     ethr =  4.24E-05,  avg # of iterations =  2.1

     total cpu time spent up to now is        1.3 secs

     total energy              =     -22.62040663 Ry
     Harris-Foulkes estimate   =     -22.62042187 Ry
     estimated scf accuracy    <       0.00004647 Ry

     iteration #  4     ecut=    18.00 Ry     beta=0.70
     Davidson diagonalization with overlap
     ethr =  5.81E-07,  avg # of iterations =  2.0

     total cpu time spent up to now is        1.3 secs

     total energy              =     -22.62042203 Ry
     Harris-Foulkes estimate   =     -22.62042337 Ry
     estimated scf accuracy    <       0.00000321 Ry

     iteration #  5     ecut=    18.00 Ry     beta=0.70
     Davidson diagonalization with overlap
     ethr =  4.01E-08,  avg # of iterations =  2.0

     total cpu time spent up to now is        1.3 secs

     total energy              =     -22.62042270 Ry
     Harris-Foulkes estimate   =     -22.62042274 Ry
     estimated scf accuracy    <       0.00000008 Ry

     iteration #  6     ecut=    18.00 Ry     beta=0.70
     Davidson diagonalization with overlap
     ethr =  9.64E-10,  avg # of iterations =  2.2

     total cpu time spent up to now is        1.4 secs

     total energy              =     -22.62042272 Ry
     Harris-Foulkes estimate   =     -22.62042272 Ry
     estimated scf accuracy    <          3.8E-10 Ry

     iteration #  7     ecut=    18.00 Ry     beta=0.70
     Davidson diagonalization with overlap
     ethr =  4.78E-12,  avg # of iterations =  3.0

     total cpu time spent up to now is        1.4 secs

     total energy              =     -22.62042272 Ry
     Harris-Foulkes estimate   =     -22.62042272 Ry
     estimated scf accuracy    <          1.0E-09 Ry

     iteration #  8     ecut=    18.00 Ry     beta=0.70
     Davidson diagonalization with overlap
     ethr =  4.78E-12,  avg # of iterations =  2.0

     total cpu time spent up to now is        1.4 secs

     total energy              =     -22.62042272 Ry
     Harris-Foulkes estimate   =     -22.62042272 Ry
     estimated scf accuracy    <          6.2E-11 Ry

     iteration #  9     ecut=    18.00 Ry     beta=0.70
     Davidson diagonalization with overlap
     ethr =  7.81E-13,  avg # of iterations =  1.9

     total cpu time spent up to now is        1.4 secs

     total energy              =     -22.62042272 Ry
     Harris-Foulkes estimate   =     -22.62042272 Ry
     estimated scf accuracy    <          1.3E-12 Ry

     iteration # 10     ecut=    18.00 Ry     beta=0.70
     Davidson diagonalization with overlap
     ethr =  1.00E-13,  avg # of iterations =  1.8

     total cpu time spent up to now is        1.4 secs

     End of self-consistent calculation

          k = 0.0000 0.0000 0.0000 (    65 PWs)   bands (ev):

    -7.2572  18.3341  18.3341  18.3341

          k = 0.1796 0.1796-0.1796 (    77 PWs)   bands (ev):

    -5.3086   9.4281  15.5560  15.5560

          k =-0.3593-0.3593 0.3593 (    76 PWs)   bands (ev):

    -0.2387   1.2135  14.3140  14.3140

          k = 0.3593 0.0000 0.0000 (    76 PWs)   bands (ev):

    -4.6540  12.2979  12.4811  12.4811

          k =-0.1796-0.5389 0.5389 (    83 PWs)   bands (ev):

    -0.2849   4.7080   9.2112  11.2485

          k = 0.0000-0.3593 0.3593 (    79 PWs)   bands (ev):

    -2.1149   7.2721   8.1611  13.7849

          k =-0.7185 0.0000 0.0000 (    92 PWs)   bands (ev):

     2.6953   2.6953   9.3992   9.3992

          k =-0.7185 0.3593 0.0000 (    84 PWs)   bands (ev):

     3.9557   3.9557   6.8279   6.8279

     highest occupied level (ev):    18.3341

!    total energy              =     -22.62042272 Ry
     Harris-Foulkes estimate   =     -22.62042272 Ry
     estimated scf accuracy    <          4.9E-13 Ry

     The total energy is the sum of the following terms:

     one-electron contribution =      10.34203338 Ry
     hartree contribution      =       1.69764632 Ry
     xc contribution           =      -7.39837614 Ry
     ewald contribution        =     -27.26172627 Ry

     convergence has been achieved in  10 iterations

     Forces acting on atoms (Ry/au):

     atom    1 type  1   force =     0.00000000    0.00000000    0.00000000
     atom    2 type  1   force =    -0.00000000   -0.00000000   -0.00000000

     Total force =     0.000000     Total SCF correction =     0.000000


     entering subroutine stress ...

          total   stress  (Ry/bohr**3)                   (kbar)     P= -386.99
  -0.00263067  -0.00000000  -0.00000000       -386.99     -0.00     -0.00
  -0.00000000  -0.00263067   0.00000000         -0.00   -386.99      0.00
  -0.00000000  -0.00000000  -0.00263067         -0.00     -0.00   -386.99


     Writing output data file pwscf.save

     init_run     :      0.20s CPU      0.22s WALL (       2 calls)
     electrons    :      0.49s CPU      0.60s WALL (       6 calls)
     update_pot   :      0.11s CPU      0.12s WALL (       4 calls)
     forces       :      0.06s CPU      0.06s WALL (       6 calls)
     stress       :      0.09s CPU      0.10s WALL (       6 calls)

     Called by init_run:
     wfcinit      :      0.01s CPU      0.01s WALL (       2 calls)
     potinit      :      0.01s CPU      0.01s WALL (       2 calls)

     Called by electrons:
     c_bands      :      0.38s CPU      0.46s WALL (      60 calls)
     sum_band     :      0.08s CPU      0.08s WALL (      60 calls)
     v_of_rho     :      0.01s CPU      0.01s WALL (      64 calls)
     newd         :      0.01s CPU      0.02s WALL (      64 calls)
     mix_rho      :      0.00s CPU      0.01s WALL (      60 calls)

     Called by c_bands:
     init_us_2    :      0.02s CPU      0.02s WALL (    1072 calls)
     cegterg      :      0.35s CPU      0.43s WALL (     480 calls)

     Called by sum_band:
     sum_band:bec :      0.00s CPU      0.00s WALL (     480 calls)
     addusdens    :      0.02s CPU      0.02s WALL (      60 calls)

     Called by *egterg:
     h_psi        :      0.24s CPU      0.28s WALL (    1408 calls)
     s_psi        :      0.02s CPU      0.03s WALL (    1408 calls)
     g_psi        :      0.00s CPU      0.00s WALL (     912 calls)
     cdiaghg      :      0.04s CPU      0.04s WALL (    1344 calls)

     Called by h_psi:
     h_psi:pot    :      0.24s CPU      0.27s WALL (    1408 calls)
     h_psi:calbec :      0.01s CPU      0.01s WALL (    1408 calls)
     vloc_psi     :      0.20s CPU      0.22s WALL (    1408 calls)
     add_vuspsi   :      0.02s CPU      0.03s WALL (    1408 calls)

     General routines
     calbec       :      0.01s CPU      0.02s WALL (    2128 calls)
     fft          :      0.01s CPU      0.02s WALL (     418 calls)
     fftw         :      0.19s CPU      0.21s WALL (   12436 calls)
     davcio       :      0.00s CPU      0.00s WALL (      16 calls)

     Parallel routines
     fft_scatter  :      0.02s CPU      0.03s WALL (   12854 calls)

     PWSCF        :     1.22s CPU         1.43s WALL


   This run was terminated on:  15:44:37  17Sep2018            

=------------------------------------------------------------------------------=
   JOB DONE.
=------------------------------------------------------------------------------=
