
     Program PWSCF v.6.0 (svn rev. 13079) starts on 17Sep2018 at 18:25: 1 

     This program is part of the open-source Quantum ESPRESSO suite
     for quantum simulation of materials; please cite
         "P. Giannozzi et al., J. Phys.:Condens. Matter 21 395502 (2009);
          URL http://www.quantum-espresso.org", 
     in publications or presentations arising from this work. More details at
     http://www.quantum-espresso.org/quote

     Parallel version (MPI), running on     1 processors
     Waiting for input...
     Reading input from standard input

     Current dimensions of program PWSCF are:
     Max number of different atomic species (ntypx) = 10
     Max number of k-points (npk) =  40000
     Max angular momentum in pseudopotentials (lmaxx) =  3
               file C.pz-rrkjus.UPF: wavefunction(s)  2S renormalized

     Subspace diagonalization in iterative solution of the eigenvalue problem:
     a serial algorithm will be used


     G-vector sticks info
     --------------------
     sticks:   dense  smooth     PW     G-vecs:    dense   smooth      PW
     Sum         313     313    109                 3527     3527     725



     bravais-lattice index     =            0
     lattice parameter (alat)  =       4.7036  a.u.
     unit-cell volume          =      73.5808 (a.u.)^3
     number of atoms/cell      =            2
     number of atomic types    =            1
     number of electrons       =         8.00
     number of Kohn-Sham states=            4
     kinetic-energy cutoff     =      50.0000  Ry
     charge density cutoff     =     200.0000  Ry
     convergence threshold     =      1.0E-10
     mixing beta               =       0.7000
     number of iterations used =            8  plain     mixing
     Exchange-correlation      =  SLA  PZ   NOGX NOGC ( 1  1  0  0 0 0)
     nstep                     =           50


     celldm(1)=   4.703558  celldm(2)=   0.000000  celldm(3)=   0.000000
     celldm(4)=   0.000000  celldm(5)=   0.000000  celldm(6)=   0.000000

     crystal axes: (cart. coord. in units of alat)
               a(1) = (   0.000000   0.707107   0.707107 )  
               a(2) = (   0.707107   0.000000   0.707107 )  
               a(3) = (   0.707107   0.707107   0.000000 )  

     reciprocal axes: (cart. coord. in units 2 pi/alat)
               b(1) = ( -0.707107  0.707107  0.707107 )  
               b(2) = (  0.707107 -0.707107  0.707107 )  
               b(3) = (  0.707107  0.707107 -0.707107 )  


     PseudoPot. # 1 for C  read from file:
     /Users/jonpvandermause/AP275/qe-6.0/pseudo/C.pz-rrkjus.UPF
     MD5 check sum: 53020fac754469c285cb7b8c67c09e81
     Pseudo is Ultrasoft, Zval =  4.0
     Generated by new atomic code, or converted to UPF format
     Using radial grid of 1425 points,  4 beta functions with: 
                l(1) =   0
                l(2) =   0
                l(3) =   1
                l(4) =   1
     Q(r) pseudized with 0 coefficients 


     atomic species   valence    mass     pseudopotential
        C              4.00    12.01100     C ( 1.00)

     48 Sym. Ops., with inversion, found (24 have fractional translation)



   Cartesian axes

     site n.     atom                  positions (alat units)
         1           C   tau(   1) = (   0.0000000   0.0000000   0.0000000  )
         2           C   tau(   2) = (   0.3535534   0.3535534   0.3535534  )

     number of k points=   256

     Number of k-points >= 100: set verbosity='high' to print them.

     Dense  grid:     3527 G-vectors     FFT dimensions: (  24,  24,  24)

     Estimated max dynamical RAM per process >       9.58Mb

     Initial potential from superposition of free atoms

     starting charge    7.99992, renormalised to    8.00000
     Starting wfc are    8 randomized atomic wfcs

     total cpu time spent up to now is        1.1 secs

     Self-consistent Calculation

     iteration #  1     ecut=    50.00 Ry     beta=0.70
     Davidson diagonalization with overlap
     ethr =  1.00E-02,  avg # of iterations =  2.9

     total cpu time spent up to now is        2.5 secs

     total energy              =     -22.84069522 Ry
     Harris-Foulkes estimate   =     -22.91236955 Ry
     estimated scf accuracy    <       0.13218484 Ry

     iteration #  2     ecut=    50.00 Ry     beta=0.70
     Davidson diagonalization with overlap
     ethr =  1.65E-03,  avg # of iterations =  1.8

     total cpu time spent up to now is        3.6 secs

     total energy              =     -22.85435807 Ry
     Harris-Foulkes estimate   =     -22.85606588 Ry
     estimated scf accuracy    <       0.00432062 Ry

     iteration #  3     ecut=    50.00 Ry     beta=0.70
     Davidson diagonalization with overlap
     ethr =  5.40E-05,  avg # of iterations =  3.1

     total cpu time spent up to now is        5.2 secs

     total energy              =     -22.85820604 Ry
     Harris-Foulkes estimate   =     -22.85845142 Ry
     estimated scf accuracy    <       0.00043062 Ry

     iteration #  4     ecut=    50.00 Ry     beta=0.70
     Davidson diagonalization with overlap
     ethr =  5.38E-06,  avg # of iterations =  2.8

     total cpu time spent up to now is        6.6 secs

     total energy              =     -22.85829311 Ry
     Harris-Foulkes estimate   =     -22.85830457 Ry
     estimated scf accuracy    <       0.00002263 Ry

     iteration #  5     ecut=    50.00 Ry     beta=0.70
     Davidson diagonalization with overlap
     ethr =  2.83E-07,  avg # of iterations =  2.5

     total cpu time spent up to now is        8.0 secs

     total energy              =     -22.85829771 Ry
     Harris-Foulkes estimate   =     -22.85829771 Ry
     estimated scf accuracy    <       0.00000002 Ry

     iteration #  6     ecut=    50.00 Ry     beta=0.70
     Davidson diagonalization with overlap
     ethr =  2.64E-10,  avg # of iterations =  4.9

     total cpu time spent up to now is       10.3 secs

     total energy              =     -22.85829819 Ry
     Harris-Foulkes estimate   =     -22.85829821 Ry
     estimated scf accuracy    <       0.00000005 Ry

     iteration #  7     ecut=    50.00 Ry     beta=0.70
     Davidson diagonalization with overlap
     ethr =  2.64E-10,  avg # of iterations =  2.8

     total cpu time spent up to now is       11.7 secs

     End of self-consistent calculation

     Number of k-points >= 100: set verbosity='high' to print the bands.

     highest occupied level (ev):    13.7762

!    total energy              =     -22.85829819 Ry
     Harris-Foulkes estimate   =     -22.85829819 Ry
     estimated scf accuracy    <          4.0E-11 Ry

     The total energy is the sum of the following terms:

     one-electron contribution =       8.31679175 Ry
     hartree contribution      =       1.87575224 Ry
     xc contribution           =      -7.13656259 Ry
     ewald contribution        =     -25.91427959 Ry

     convergence has been achieved in   7 iterations

     Forces acting on atoms (Ry/au):

     atom    1 type  1   force =     0.00000000    0.00000000    0.00000000
     atom    2 type  1   force =     0.00000000    0.00000000    0.00000000

     Total force =     0.000000     Total SCF correction =     0.000000


     entering subroutine stress ...

          total   stress  (Ry/bohr**3)                   (kbar)     P=   24.10
   0.00016383   0.00000000   0.00000000         24.10      0.00      0.00
   0.00000000   0.00016383   0.00000000          0.00     24.10      0.00
   0.00000000   0.00000000   0.00016383          0.00      0.00     24.10


     BFGS Geometry Optimization

     number of scf cycles    =   1
     number of bfgs steps    =   0

     enthalpy new            =     -22.8582981934 Ry

     new trust radius        =       0.0070264862 bohr
     new conv_thr            =            1.0E-10 Ry

     new unit-cell volume =     74.48862 a.u.^3 (    11.03807 Ang^3 )

CELL_PARAMETERS (angstrom)
   0.000000000   1.767208395   1.767208395
   1.767208395   0.000000000   1.767208395
   1.767208395   1.767208395   0.000000000

ATOMIC_POSITIONS (angstrom)
C        0.000000000   0.000000000   0.000000000
C        0.883604197   0.883604197   0.883604197



     Writing output data file pwscf.save
     NEW-OLD atomic charge density approx. for the potential
     extrapolated charge    8.09750, renormalised to    8.00000

     total cpu time spent up to now is       12.7 secs

     Self-consistent Calculation

     iteration #  1     ecut=    50.00 Ry     beta=0.70
     Davidson diagonalization with overlap
     ethr =  1.00E-06,  avg # of iterations =  3.0

     total cpu time spent up to now is       14.4 secs

     total energy              =     -22.85812997 Ry
     Harris-Foulkes estimate   =     -22.92569871 Ry
     estimated scf accuracy    <       0.00006254 Ry

     iteration #  2     ecut=    50.00 Ry     beta=0.70
     Davidson diagonalization with overlap
     ethr =  7.82E-07,  avg # of iterations =  3.2

     total cpu time spent up to now is       16.1 secs

     total energy              =     -22.85827786 Ry
     Harris-Foulkes estimate   =     -22.85829640 Ry
     estimated scf accuracy    <       0.00004902 Ry

     iteration #  3     ecut=    50.00 Ry     beta=0.70
     Davidson diagonalization with overlap
     ethr =  6.13E-07,  avg # of iterations =  1.0

     total cpu time spent up to now is       17.0 secs

     total energy              =     -22.85826985 Ry
     Harris-Foulkes estimate   =     -22.85827899 Ry
     estimated scf accuracy    <       0.00001480 Ry

     iteration #  4     ecut=    50.00 Ry     beta=0.70
     Davidson diagonalization with overlap
     ethr =  1.85E-07,  avg # of iterations =  2.0

     total cpu time spent up to now is       18.3 secs

     total energy              =     -22.85827371 Ry
     Harris-Foulkes estimate   =     -22.85827438 Ry
     estimated scf accuracy    <       0.00000161 Ry

     iteration #  5     ecut=    50.00 Ry     beta=0.70
     Davidson diagonalization with overlap
     ethr =  2.01E-08,  avg # of iterations =  1.1

     total cpu time spent up to now is       19.2 secs

     total energy              =     -22.85827376 Ry
     Harris-Foulkes estimate   =     -22.85827379 Ry
     estimated scf accuracy    <       0.00000034 Ry

     iteration #  6     ecut=    50.00 Ry     beta=0.70
     Davidson diagonalization with overlap
     ethr =  4.21E-09,  avg # of iterations =  1.1

     total cpu time spent up to now is       20.1 secs

     total energy              =     -22.85827362 Ry
     Harris-Foulkes estimate   =     -22.85827378 Ry
     estimated scf accuracy    <       0.00000028 Ry

     iteration #  7     ecut=    50.00 Ry     beta=0.70
     Davidson diagonalization with overlap
     ethr =  3.54E-09,  avg # of iterations =  2.6

     total cpu time spent up to now is       21.4 secs

     total energy              =     -22.85827368 Ry
     Harris-Foulkes estimate   =     -22.85827368 Ry
     estimated scf accuracy    <       0.00000002 Ry

     iteration #  8     ecut=    50.00 Ry     beta=0.70
     Davidson diagonalization with overlap
     ethr =  2.65E-10,  avg # of iterations =  2.0

     total cpu time spent up to now is       22.5 secs

     total energy              =     -22.85827368 Ry
     Harris-Foulkes estimate   =     -22.85827368 Ry
     estimated scf accuracy    <       0.00000003 Ry

     iteration #  9     ecut=    50.00 Ry     beta=0.70
     Davidson diagonalization with overlap
     ethr =  2.65E-10,  avg # of iterations =  1.0

     total cpu time spent up to now is       23.4 secs

     total energy              =     -22.85827368 Ry
     Harris-Foulkes estimate   =     -22.85827368 Ry
     estimated scf accuracy    <       0.00000002 Ry

     iteration # 10     ecut=    50.00 Ry     beta=0.70
     Davidson diagonalization with overlap
     ethr =  2.03E-10,  avg # of iterations =  1.0

     total cpu time spent up to now is       24.3 secs

     total energy              =     -22.85827368 Ry
     Harris-Foulkes estimate   =     -22.85827368 Ry
     estimated scf accuracy    <       0.00000001 Ry

     iteration # 11     ecut=    50.00 Ry     beta=0.70
     Davidson diagonalization with overlap
     ethr =  1.41E-10,  avg # of iterations =  1.0

     total cpu time spent up to now is       25.2 secs

     total energy              =     -22.85827368 Ry
     Harris-Foulkes estimate   =     -22.85827368 Ry
     estimated scf accuracy    <          4.4E-09 Ry

     iteration # 12     ecut=    50.00 Ry     beta=0.70
     Davidson diagonalization with overlap
     ethr =  5.56E-11,  avg # of iterations =  1.0

     total cpu time spent up to now is       26.1 secs

     total energy              =     -22.85827368 Ry
     Harris-Foulkes estimate   =     -22.85827368 Ry
     estimated scf accuracy    <          9.8E-09 Ry

     iteration # 13     ecut=    50.00 Ry     beta=0.70
     Davidson diagonalization with overlap
     ethr =  5.56E-11,  avg # of iterations =  2.0

     total cpu time spent up to now is       27.3 secs

     total energy              =     -22.85827368 Ry
     Harris-Foulkes estimate   =     -22.85827368 Ry
     estimated scf accuracy    <          1.4E-09 Ry

     iteration # 14     ecut=    50.00 Ry     beta=0.70
     Davidson diagonalization with overlap
     ethr =  1.77E-11,  avg # of iterations =  1.0

     total cpu time spent up to now is       28.3 secs

     total energy              =     -22.85827368 Ry
     Harris-Foulkes estimate   =     -22.85827368 Ry
     estimated scf accuracy    <          1.2E-10 Ry

     iteration # 15     ecut=    50.00 Ry     beta=0.70
     Davidson diagonalization with overlap
     ethr =  1.49E-12,  avg # of iterations =  2.6

     total cpu time spent up to now is       29.7 secs

     End of self-consistent calculation

     Number of k-points >= 100: set verbosity='high' to print the bands.

     highest occupied level (ev):    13.5516

!    total energy              =     -22.85827368 Ry
     Harris-Foulkes estimate   =     -22.85827368 Ry
     estimated scf accuracy    <          1.6E-11 Ry

     The total energy is the sum of the following terms:

     one-electron contribution =       8.17866284 Ry
     hartree contribution      =       1.88758349 Ry
     xc contribution           =      -7.11594405 Ry
     ewald contribution        =     -25.80857596 Ry

     convergence has been achieved in  15 iterations

     Forces acting on atoms (Ry/au):

     atom    1 type  1   force =     0.00000000   -0.00000000   -0.00000000
     atom    2 type  1   force =     0.00000000    0.00000000   -0.00000000

     Total force =     0.000000     Total SCF correction =     0.000000


     entering subroutine stress ...

          total   stress  (Ry/bohr**3)                   (kbar)     P=  -32.78
  -0.00022285  -0.00000000   0.00000000        -32.78     -0.00      0.00
  -0.00000000  -0.00022285  -0.00000000         -0.00    -32.78     -0.00
   0.00000000  -0.00000000  -0.00022285          0.00     -0.00    -32.78


     number of scf cycles    =   2
     number of bfgs steps    =   1

     enthalpy old            =     -22.8582981934 Ry
     enthalpy new            =     -22.8582736800 Ry

     CASE: enthalpy_new > enthalpy_old

     new trust radius        =       0.0030205250 bohr
     new conv_thr            =            1.0E-10 Ry

     new unit-cell volume =     73.96935 a.u.^3 (    10.96113 Ang^3 )

CELL_PARAMETERS (angstrom)
   0.000000000   1.763092397   1.763092397
   1.763092397   0.000000000   1.763092397
   1.763092397   1.763092397   0.000000000

ATOMIC_POSITIONS (angstrom)
C        0.000000000   0.000000000   0.000000000
C        0.881546199   0.881546199   0.881546199



     Writing output data file pwscf.save
     NEW-OLD atomic charge density approx. for the potential
     extrapolated charge    7.94384, renormalised to    8.00000

     total cpu time spent up to now is       30.8 secs

     Self-consistent Calculation

     iteration #  1     ecut=    50.00 Ry     beta=0.70
     Davidson diagonalization with overlap
     ethr =  1.00E-06,  avg # of iterations =  3.0

     total cpu time spent up to now is       32.5 secs

     total energy              =     -22.85828305 Ry
     Harris-Foulkes estimate   =     -22.81933002 Ry
     estimated scf accuracy    <       0.00002170 Ry

     iteration #  2     ecut=    50.00 Ry     beta=0.70
     Davidson diagonalization with overlap
     ethr =  2.71E-07,  avg # of iterations =  3.2

     total cpu time spent up to now is       34.2 secs

     total energy              =     -22.85833229 Ry
     Harris-Foulkes estimate   =     -22.85833839 Ry
     estimated scf accuracy    <       0.00001598 Ry

     iteration #  3     ecut=    50.00 Ry     beta=0.70
     Davidson diagonalization with overlap
     ethr =  2.00E-07,  avg # of iterations =  1.0

     total cpu time spent up to now is       35.1 secs

     total energy              =     -22.85832975 Ry
     Harris-Foulkes estimate   =     -22.85833266 Ry
     estimated scf accuracy    <       0.00000471 Ry

     iteration #  4     ecut=    50.00 Ry     beta=0.70
     Davidson diagonalization with overlap
     ethr =  5.89E-08,  avg # of iterations =  2.1

     total cpu time spent up to now is       36.4 secs

     total energy              =     -22.85833100 Ry
     Harris-Foulkes estimate   =     -22.85833125 Ry
     estimated scf accuracy    <       0.00000059 Ry

     iteration #  5     ecut=    50.00 Ry     beta=0.70
     Davidson diagonalization with overlap
     ethr =  7.36E-09,  avg # of iterations =  1.1

     total cpu time spent up to now is       37.4 secs

     total energy              =     -22.85833106 Ry
     Harris-Foulkes estimate   =     -22.85833103 Ry
     estimated scf accuracy    <       0.00000011 Ry

     iteration #  6     ecut=    50.00 Ry     beta=0.70
     Davidson diagonalization with overlap
     ethr =  1.43E-09,  avg # of iterations =  1.1

     total cpu time spent up to now is       38.3 secs

     total energy              =     -22.85833096 Ry
     Harris-Foulkes estimate   =     -22.85833107 Ry
     estimated scf accuracy    <       0.00000018 Ry

     iteration #  7     ecut=    50.00 Ry     beta=0.70
     Davidson diagonalization with overlap
     ethr =  1.43E-09,  avg # of iterations =  3.0

     total cpu time spent up to now is       39.9 secs

     total energy              =     -22.85833099 Ry
     Harris-Foulkes estimate   =     -22.85833101 Ry
     estimated scf accuracy    <       0.00000004 Ry

     iteration #  8     ecut=    50.00 Ry     beta=0.70
     Davidson diagonalization with overlap
     ethr =  5.55E-10,  avg # of iterations =  1.0

     total cpu time spent up to now is       40.8 secs

     total energy              =     -22.85833099 Ry
     Harris-Foulkes estimate   =     -22.85833099 Ry
     estimated scf accuracy    <          7.0E-09 Ry

     iteration #  9     ecut=    50.00 Ry     beta=0.70
     Davidson diagonalization with overlap
     ethr =  8.73E-11,  avg # of iterations =  2.7

     total cpu time spent up to now is       42.2 secs

     total energy              =     -22.85833099 Ry
     Harris-Foulkes estimate   =     -22.85833099 Ry
     estimated scf accuracy    <          3.4E-10 Ry

     iteration # 10     ecut=    50.00 Ry     beta=0.70
     Davidson diagonalization with overlap
     ethr =  4.30E-12,  avg # of iterations =  2.4

     total cpu time spent up to now is       43.6 secs

     End of self-consistent calculation

     Number of k-points >= 100: set verbosity='high' to print the bands.

     highest occupied level (ev):    13.6795

!    total energy              =     -22.85833099 Ry
     Harris-Foulkes estimate   =     -22.85833099 Ry
     estimated scf accuracy    <          9.1E-11 Ry

     The total energy is the sum of the following terms:

     one-electron contribution =       8.25736441 Ry
     hartree contribution      =       1.88082280 Ry
     xc contribution           =      -7.12769128 Ry
     ewald contribution        =     -25.86882693 Ry

     convergence has been achieved in  10 iterations

     Forces acting on atoms (Ry/au):

     atom    1 type  1   force =     0.00000000    0.00000000    0.00000000
     atom    2 type  1   force =    -0.00000000   -0.00000000   -0.00000000

     Total force =     0.000000     Total SCF correction =     0.000000


     entering subroutine stress ...

          total   stress  (Ry/bohr**3)                   (kbar)     P=   -0.65
  -0.00000439   0.00000000   0.00000000         -0.65      0.00      0.00
   0.00000000  -0.00000439   0.00000000          0.00     -0.65      0.00
   0.00000000   0.00000000  -0.00000439          0.00      0.00     -0.65


     number of scf cycles    =   3
     number of bfgs steps    =   1

     enthalpy old            =     -22.8582981934 Ry
     enthalpy new            =     -22.8583309921 Ry

     CASE: enthalpy_new < enthalpy_old

     small trust_radius: resetting bfgs history

     new trust radius        =       0.0001000000 bohr
     new conv_thr            =            1.0E-12 Ry

     new unit-cell volume =     73.95645 a.u.^3 (    10.95922 Ang^3 )

CELL_PARAMETERS (angstrom)
   0.000000000   1.762989898   1.762989898
   1.762989898   0.000000000   1.762989898
   1.762989898   1.762989898   0.000000000

ATOMIC_POSITIONS (angstrom)
C       -0.000000000   0.000000000   0.000000000
C        0.881494949   0.881494949   0.881494949



     Writing output data file pwscf.save
     NEW-OLD atomic charge density approx. for the potential
     extrapolated charge    7.99860, renormalised to    8.00000

     total cpu time spent up to now is       44.7 secs

     Self-consistent Calculation

     iteration #  1     ecut=    50.00 Ry     beta=0.70
     Davidson diagonalization with overlap
     ethr =  1.00E-06,  avg # of iterations =  2.0

     Threshold (ethr) on eigenvalues was too large:
     Diagonalizing with lowered threshold

     Davidson diagonalization with overlap
     ethr =  1.70E-10,  avg # of iterations =  1.8

     total cpu time spent up to now is       47.0 secs

     total energy              =     -22.85833098 Ry
     Harris-Foulkes estimate   =     -22.85736142 Ry
     estimated scf accuracy    <       0.00000001 Ry

     iteration #  2     ecut=    50.00 Ry     beta=0.70
     Davidson diagonalization with overlap
     ethr =  1.66E-10,  avg # of iterations =  3.2

     total cpu time spent up to now is       48.7 secs

     total energy              =     -22.85833101 Ry
     Harris-Foulkes estimate   =     -22.85833102 Ry
     estimated scf accuracy    <          9.9E-09 Ry

     iteration #  3     ecut=    50.00 Ry     beta=0.70
     Davidson diagonalization with overlap
     ethr =  1.23E-10,  avg # of iterations =  1.0

     total cpu time spent up to now is       49.6 secs

     total energy              =     -22.85833101 Ry
     Harris-Foulkes estimate   =     -22.85833101 Ry
     estimated scf accuracy    <          2.9E-09 Ry

     iteration #  4     ecut=    50.00 Ry     beta=0.70
     Davidson diagonalization with overlap
     ethr =  3.64E-11,  avg # of iterations =  2.0

     total cpu time spent up to now is       50.9 secs

     total energy              =     -22.85833101 Ry
     Harris-Foulkes estimate   =     -22.85833101 Ry
     estimated scf accuracy    <          3.3E-10 Ry

     iteration #  5     ecut=    50.00 Ry     beta=0.70
     Davidson diagonalization with overlap
     ethr =  4.09E-12,  avg # of iterations =  1.1

     total cpu time spent up to now is       51.9 secs

     total energy              =     -22.85833101 Ry
     Harris-Foulkes estimate   =     -22.85833101 Ry
     estimated scf accuracy    <          6.5E-11 Ry

     iteration #  6     ecut=    50.00 Ry     beta=0.70
     Davidson diagonalization with overlap
     ethr =  8.14E-13,  avg # of iterations =  1.2

     total cpu time spent up to now is       52.8 secs

     total energy              =     -22.85833101 Ry
     Harris-Foulkes estimate   =     -22.85833101 Ry
     estimated scf accuracy    <          1.2E-10 Ry

     iteration #  7     ecut=    50.00 Ry     beta=0.70
     Davidson diagonalization with overlap
     ethr =  8.14E-13,  avg # of iterations =  3.0

     total cpu time spent up to now is       54.5 secs

     total energy              =     -22.85833101 Ry
     Harris-Foulkes estimate   =     -22.85833101 Ry
     estimated scf accuracy    <          1.9E-11 Ry

     iteration #  8     ecut=    50.00 Ry     beta=0.70
     Davidson diagonalization with overlap
     ethr =  2.32E-13,  avg # of iterations =  1.0

     total cpu time spent up to now is       55.4 secs

     total energy              =     -22.85833101 Ry
     Harris-Foulkes estimate   =     -22.85833101 Ry
     estimated scf accuracy    <          3.5E-12 Ry

     iteration #  9     ecut=    50.00 Ry     beta=0.70
     Davidson diagonalization with overlap
     ethr =  1.00E-13,  avg # of iterations =  1.4

     total cpu time spent up to now is       56.4 secs

     End of self-consistent calculation

     Number of k-points >= 100: set verbosity='high' to print the bands.

     highest occupied level (ev):    13.6827

!    total energy              =     -22.85833101 Ry
     Harris-Foulkes estimate   =     -22.85833101 Ry
     estimated scf accuracy    <          4.8E-15 Ry

     The total energy is the sum of the following terms:

     one-electron contribution =       8.25932916 Ry
     hartree contribution      =       1.88065598 Ry
     xc contribution           =      -7.12798522 Ry
     ewald contribution        =     -25.87033093 Ry

     convergence has been achieved in   9 iterations

     Forces acting on atoms (Ry/au):

     atom    1 type  1   force =    -0.00000000   -0.00000000    0.00000000
     atom    2 type  1   force =     0.00000000    0.00000000   -0.00000000

     Total force =     0.000000     Total SCF correction =     0.000000


     entering subroutine stress ...

          total   stress  (Ry/bohr**3)                   (kbar)     P=    0.17
   0.00000115  -0.00000000  -0.00000000          0.17     -0.00     -0.00
  -0.00000000   0.00000115  -0.00000000         -0.00      0.17     -0.00
  -0.00000000  -0.00000000   0.00000115         -0.00     -0.00      0.17


     bfgs converged in   4 scf cycles and   2 bfgs steps
     (criteria: energy <  1.0E-04, force <  1.0E-03, cell <  5.0E-01)

     End of BFGS Geometry Optimization

     Final enthalpy =     -22.8583310127 Ry
Begin final coordinates
     new unit-cell volume =     73.95645 a.u.^3 (    10.95922 Ang^3 )

CELL_PARAMETERS (angstrom)
   0.000000000   1.762989898   1.762989898
   1.762989898   0.000000000   1.762989898
   1.762989898   1.762989898   0.000000000

ATOMIC_POSITIONS (angstrom)
C        0.000000000   0.000000000   0.000000000
C        0.881494949   0.881494949   0.881494949
End final coordinates



     A final scf calculation at the relaxed structure.
     The G-vectors are recalculated for the final unit cell
     Results may differ from those at the preceding step.

   Info: using nr1, nr2, nr3 values from input

   Info: using nr1, nr2, nr3 values from input

     G-vector sticks info
     --------------------
     sticks:   dense  smooth     PW     G-vecs:    dense   smooth      PW
     Sum         313     313    109                 3527     3527     725



     bravais-lattice index     =            0
     lattice parameter (alat)  =       4.7036  a.u.
     unit-cell volume          =      73.9565 (a.u.)^3
     number of atoms/cell      =            2
     number of atomic types    =            1
     number of electrons       =         8.00
     number of Kohn-Sham states=            4
     kinetic-energy cutoff     =      50.0000  Ry
     charge density cutoff     =     200.0000  Ry
     convergence threshold     =      1.0E-12
     mixing beta               =       0.7000
     number of iterations used =            8  plain     mixing
     Exchange-correlation      =  SLA  PZ   NOGX NOGC ( 1  1  0  0 0 0)

     celldm(1)=   4.703558  celldm(2)=   0.000000  celldm(3)=   0.000000
     celldm(4)=   0.000000  celldm(5)=   0.000000  celldm(6)=   0.000000

     crystal axes: (cart. coord. in units of alat)
               a(1) = (   0.000000   0.708308   0.708308 )  
               a(2) = (   0.708308   0.000000   0.708308 )  
               a(3) = (   0.708308   0.708308   0.000000 )  

     reciprocal axes: (cart. coord. in units 2 pi/alat)
               b(1) = ( -0.705908  0.705908  0.705908 )  
               b(2) = (  0.705908 -0.705908  0.705908 )  
               b(3) = (  0.705908  0.705908 -0.705908 )  


     PseudoPot. # 1 for C  read from file:
     /Users/jonpvandermause/AP275/qe-6.0/pseudo/C.pz-rrkjus.UPF
     MD5 check sum: 53020fac754469c285cb7b8c67c09e81
     Pseudo is Ultrasoft, Zval =  4.0
     Generated by new atomic code, or converted to UPF format
     Using radial grid of 1425 points,  4 beta functions with: 
                l(1) =   0
                l(2) =   0
                l(3) =   1
                l(4) =   1
     Q(r) pseudized with 0 coefficients 


     atomic species   valence    mass     pseudopotential
        C              4.00    12.01100     C ( 1.00)

     48 Sym. Ops., with inversion, found (24 have fractional translation)



   Cartesian axes

     site n.     atom                  positions (alat units)
         1           C   tau(   1) = (   0.0000000   0.0000000   0.0000000  )
         2           C   tau(   2) = (   0.3541540   0.3541540   0.3541540  )

     number of k points=   256

     Number of k-points >= 100: set verbosity='high' to print them.

     Dense  grid:     3527 G-vectors     FFT dimensions: (  24,  24,  24)

     Estimated max dynamical RAM per process >       9.63Mb

     Initial potential from superposition of free atoms

     starting charge    7.99992, renormalised to    8.00000
     Starting wfc are    8 randomized atomic wfcs

     Writing output data file pwscf.save

     total cpu time spent up to now is       58.3 secs

     Self-consistent Calculation

     iteration #  1     ecut=    50.00 Ry     beta=0.70
     Davidson diagonalization with overlap
     ethr =  1.00E-06,  avg # of iterations =  6.2

     total cpu time spent up to now is       61.2 secs

     total energy              =     -22.84628195 Ry
     Harris-Foulkes estimate   =     -22.91993800 Ry
     estimated scf accuracy    <       0.13689882 Ry

     iteration #  2     ecut=    50.00 Ry     beta=0.70
     Davidson diagonalization with overlap
     ethr =  1.71E-03,  avg # of iterations =  1.0

     total cpu time spent up to now is       62.2 secs

     total energy              =     -22.85268910 Ry
     Harris-Foulkes estimate   =     -22.85458265 Ry
     estimated scf accuracy    <       0.00447009 Ry

     iteration #  3     ecut=    50.00 Ry     beta=0.70
     Davidson diagonalization with overlap
     ethr =  5.59E-05,  avg # of iterations =  3.2

     total cpu time spent up to now is       63.9 secs

     total energy              =     -22.85818099 Ry
     Harris-Foulkes estimate   =     -22.85876905 Ry
     estimated scf accuracy    <       0.00101624 Ry

     iteration #  4     ecut=    50.00 Ry     beta=0.70
     Davidson diagonalization with overlap
     ethr =  1.27E-05,  avg # of iterations =  2.2

     total cpu time spent up to now is       65.1 secs

     total energy              =     -22.85832120 Ry
     Harris-Foulkes estimate   =     -22.85833264 Ry
     estimated scf accuracy    <       0.00002610 Ry

     iteration #  5     ecut=    50.00 Ry     beta=0.70
     Davidson diagonalization with overlap
     ethr =  3.26E-07,  avg # of iterations =  3.0

     total cpu time spent up to now is       66.6 secs

     total energy              =     -22.85833908 Ry
     Harris-Foulkes estimate   =     -22.85833915 Ry
     estimated scf accuracy    <       0.00000029 Ry

     iteration #  6     ecut=    50.00 Ry     beta=0.70
     Davidson diagonalization with overlap
     ethr =  3.58E-09,  avg # of iterations =  3.1

     total cpu time spent up to now is       68.1 secs

     total energy              =     -22.85833918 Ry
     Harris-Foulkes estimate   =     -22.85833920 Ry
     estimated scf accuracy    <       0.00000008 Ry

     iteration #  7     ecut=    50.00 Ry     beta=0.70
     Davidson diagonalization with overlap
     ethr =  1.03E-09,  avg # of iterations =  1.9

     total cpu time spent up to now is       69.2 secs

     total energy              =     -22.85833918 Ry
     Harris-Foulkes estimate   =     -22.85833919 Ry
     estimated scf accuracy    <          8.0E-09 Ry

     iteration #  8     ecut=    50.00 Ry     beta=0.70
     Davidson diagonalization with overlap
     ethr =  9.94E-11,  avg # of iterations =  3.1

     total cpu time spent up to now is       70.7 secs

     total energy              =     -22.85833919 Ry
     Harris-Foulkes estimate   =     -22.85833919 Ry
     estimated scf accuracy    <          1.5E-10 Ry

     iteration #  9     ecut=    50.00 Ry     beta=0.70
     Davidson diagonalization with overlap
     ethr =  1.90E-12,  avg # of iterations =  3.4

     total cpu time spent up to now is       72.2 secs

     total energy              =     -22.85833919 Ry
     Harris-Foulkes estimate   =     -22.85833919 Ry
     estimated scf accuracy    <          1.3E-10 Ry

     iteration # 10     ecut=    50.00 Ry     beta=0.70
     Davidson diagonalization with overlap
     ethr =  1.65E-12,  avg # of iterations =  1.0

     total cpu time spent up to now is       73.2 secs

     total energy              =     -22.85833919 Ry
     Harris-Foulkes estimate   =     -22.85833919 Ry
     estimated scf accuracy    <          3.6E-11 Ry

     iteration # 11     ecut=    50.00 Ry     beta=0.70
     Davidson diagonalization with overlap
     ethr =  4.45E-13,  avg # of iterations =  1.9

     total cpu time spent up to now is       74.3 secs

     total energy              =     -22.85833919 Ry
     Harris-Foulkes estimate   =     -22.85833919 Ry
     estimated scf accuracy    <          6.1E-12 Ry

     iteration # 12     ecut=    50.00 Ry     beta=0.70
     Davidson diagonalization with overlap
     ethr =  1.00E-13,  avg # of iterations =  2.5

     total cpu time spent up to now is       75.6 secs

     total energy              =     -22.85833919 Ry
     Harris-Foulkes estimate   =     -22.85833919 Ry
     estimated scf accuracy    <          2.4E-12 Ry

     iteration # 13     ecut=    50.00 Ry     beta=0.70
     Davidson diagonalization with overlap
     ethr =  1.00E-13,  avg # of iterations =  1.7

     total cpu time spent up to now is       76.6 secs

     total energy              =     -22.85833919 Ry
     Harris-Foulkes estimate   =     -22.85833919 Ry
     estimated scf accuracy    <          1.3E-12 Ry

     iteration # 14     ecut=    50.00 Ry     beta=0.70
     Davidson diagonalization with overlap
     ethr =  1.00E-13,  avg # of iterations =  1.0

     total cpu time spent up to now is       77.6 secs

     End of self-consistent calculation

     Number of k-points >= 100: set verbosity='high' to print the bands.

     highest occupied level (ev):    13.6827

!    total energy              =     -22.85833919 Ry
     Harris-Foulkes estimate   =     -22.85833919 Ry
     estimated scf accuracy    <          6.3E-15 Ry

     The total energy is the sum of the following terms:

     one-electron contribution =       8.25932102 Ry
     hartree contribution      =       1.88066053 Ry
     xc contribution           =      -7.12798982 Ry
     ewald contribution        =     -25.87033093 Ry

     convergence has been achieved in  14 iterations

     Forces acting on atoms (Ry/au):

     atom    1 type  1   force =     0.00000000   -0.00000000    0.00000000
     atom    2 type  1   force =    -0.00000000    0.00000000   -0.00000000

     Total force =     0.000000     Total SCF correction =     0.000000


     entering subroutine stress ...

          total   stress  (Ry/bohr**3)                   (kbar)     P=    0.22
   0.00000152   0.00000000  -0.00000000          0.22      0.00     -0.00
   0.00000000   0.00000152  -0.00000000          0.00      0.22     -0.00
  -0.00000000   0.00000000   0.00000152         -0.00      0.00      0.22


     Writing output data file pwscf.save

     init_run     :      1.79s CPU      1.91s WALL (       2 calls)
     electrons    :     66.61s CPU     71.20s WALL (       5 calls)
     update_pot   :      0.42s CPU      0.43s WALL (       3 calls)
     forces       :      0.49s CPU      0.52s WALL (       5 calls)
     stress       :      1.45s CPU      1.49s WALL (       5 calls)

     Called by init_run:
     wfcinit      :      1.37s CPU      1.45s WALL (       2 calls)
     potinit      :      0.05s CPU      0.06s WALL (       2 calls)

     Called by electrons:
     c_bands      :     57.70s CPU     61.85s WALL (      56 calls)
     sum_band     :      8.77s CPU      9.14s WALL (      56 calls)
     v_of_rho     :      0.05s CPU      0.05s WALL (      60 calls)
     newd         :      0.07s CPU      0.07s WALL (      60 calls)
     mix_rho      :      0.02s CPU      0.03s WALL (      56 calls)

     Called by c_bands:
     init_us_2    :      2.14s CPU      2.21s WALL (   31744 calls)
     cegterg      :     54.70s CPU     58.55s WALL (   14336 calls)

     Called by sum_band:
     sum_band:bec :      0.03s CPU      0.04s WALL (   14336 calls)
     addusdens    :      0.08s CPU      0.07s WALL (      56 calls)

     Called by *egterg:
     h_psi        :     45.84s CPU     48.39s WALL (   45602 calls)
     s_psi        :      2.45s CPU      2.70s WALL (   45602 calls)
     g_psi        :      0.34s CPU      0.37s WALL (   30754 calls)
     cdiaghg      :      1.65s CPU      1.71s WALL (   44066 calls)

     Called by h_psi:
     h_psi:pot    :     45.21s CPU     47.68s WALL (   45602 calls)
     h_psi:calbec :      1.20s CPU      1.29s WALL (   45602 calls)
     vloc_psi     :     41.58s CPU     43.37s WALL (   45602 calls)
     add_vuspsi   :      2.26s CPU      2.73s WALL (   45602 calls)

     General routines
     calbec       :      1.66s CPU      1.74s WALL (   66338 calls)
     fft          :      0.06s CPU      0.07s WALL (     386 calls)
     fftw         :     43.81s CPU     45.50s WALL (  392374 calls)
     davcio       :      0.00s CPU      0.05s WALL (     512 calls)

     Parallel routines
     fft_scatter  :      2.50s CPU      2.77s WALL (  392760 calls)

     PWSCF        :  1m12.50s CPU     1m18.52s WALL


   This run was terminated on:  18:26:20  17Sep2018            

=------------------------------------------------------------------------------=
   JOB DONE.
=------------------------------------------------------------------------------=
