
     Program PWSCF v.6.0 (svn rev. 13079) starts on 17Sep2018 at 15:52:10 

     This program is part of the open-source Quantum ESPRESSO suite
     for quantum simulation of materials; please cite
         "P. Giannozzi et al., J. Phys.:Condens. Matter 21 395502 (2009);
          URL http://www.quantum-espresso.org", 
     in publications or presentations arising from this work. More details at
     http://www.quantum-espresso.org/quote

     Parallel version (MPI), running on     1 processors
     Waiting for input...
     Reading input from standard input

     Current dimensions of program PWSCF are:
     Max number of different atomic species (ntypx) = 10
     Max number of k-points (npk) =  40000
     Max angular momentum in pseudopotentials (lmaxx) =  3

     Subspace diagonalization in iterative solution of the eigenvalue problem:
     a serial algorithm will be used


     G-vector sticks info
     --------------------
     sticks:   dense  smooth     PW     G-vecs:    dense   smooth      PW
     Sum         253     253     85                 2733     2733     531



     bravais-lattice index     =            0
     lattice parameter (alat)  =       7.1890  a.u.
     unit-cell volume          =     262.7141 (a.u.)^3
     number of atoms/cell      =            2
     number of atomic types    =            1
     number of electrons       =         8.00
     number of Kohn-Sham states=            4
     kinetic-energy cutoff     =      18.0000  Ry
     charge density cutoff     =      72.0000  Ry
     convergence threshold     =      1.0E-10
     mixing beta               =       0.7000
     number of iterations used =            8  plain     mixing
     Exchange-correlation      =  SLA  PZ   NOGX NOGC ( 1  1  0  0 0 0)
     nstep                     =           50


     celldm(1)=   7.188961  celldm(2)=   0.000000  celldm(3)=   0.000000
     celldm(4)=   0.000000  celldm(5)=   0.000000  celldm(6)=   0.000000

     crystal axes: (cart. coord. in units of alat)
               a(1) = (   0.000000   0.707107   0.707107 )  
               a(2) = (   0.707107   0.000000   0.707107 )  
               a(3) = (   0.707107   0.707107   0.000000 )  

     reciprocal axes: (cart. coord. in units 2 pi/alat)
               b(1) = ( -0.707107  0.707107  0.707107 )  
               b(2) = (  0.707107 -0.707107  0.707107 )  
               b(3) = (  0.707107  0.707107 -0.707107 )  


     PseudoPot. # 1 for Si read from file:
     /Users/jonpvandermause/AP275/qe-6.0/pseudo/Si.pz-vbc.UPF
     MD5 check sum: 6dfa03ddd5817404712e03e4d12deb78
     Pseudo is Norm-conserving, Zval =  4.0
     Generated by new atomic code, or converted to UPF format
     Using radial grid of  431 points,  2 beta functions with: 
                l(1) =   0
                l(2) =   1

     atomic species   valence    mass     pseudopotential
        Si             4.00    28.08600     Si( 1.00)

     48 Sym. Ops., with inversion, found (24 have fractional translation)



   Cartesian axes

     site n.     atom                  positions (alat units)
         1           Si  tau(   1) = (   0.0000000   0.0000000   0.0000000  )
         2           Si  tau(   2) = (   0.3535534   0.3535534   0.3535534  )

     number of k points=     8
                       cart. coord. in units 2pi/alat
        k(    1) = (   0.0000000   0.0000000   0.0000000), wk =   0.0312500
        k(    2) = (   0.1767767   0.1767767  -0.1767767), wk =   0.2500000
        k(    3) = (  -0.3535534  -0.3535534   0.3535534), wk =   0.1250000
        k(    4) = (   0.3535534   0.0000000   0.0000000), wk =   0.1875000
        k(    5) = (  -0.1767767  -0.5303301   0.5303301), wk =   0.7500000
        k(    6) = (   0.0000000  -0.3535534   0.3535534), wk =   0.3750000
        k(    7) = (  -0.7071068   0.0000000   0.0000000), wk =   0.0937500
        k(    8) = (  -0.7071068   0.3535534   0.0000000), wk =   0.1875000

     Dense  grid:     2733 G-vectors     FFT dimensions: (  20,  20,  20)

     Estimated max dynamical RAM per process >       1.96Mb

     Initial potential from superposition of free atoms

     starting charge    7.99901, renormalised to    8.00000
     Starting wfc are    8 randomized atomic wfcs

     total cpu time spent up to now is        0.1 secs

     Self-consistent Calculation

     iteration #  1     ecut=    18.00 Ry     beta=0.70
     Davidson diagonalization with overlap
     ethr =  1.00E-02,  avg # of iterations =  2.0

     Threshold (ethr) on eigenvalues was too large:
     Diagonalizing with lowered threshold

     Davidson diagonalization with overlap
     ethr =  8.65E-04,  avg # of iterations =  1.0

     total cpu time spent up to now is        0.1 secs

     total energy              =     -15.82629170 Ry
     Harris-Foulkes estimate   =     -15.85026508 Ry
     estimated scf accuracy    <       0.06858283 Ry

     iteration #  2     ecut=    18.00 Ry     beta=0.70
     Davidson diagonalization with overlap
     ethr =  8.57E-04,  avg # of iterations =  1.0

     total cpu time spent up to now is        0.1 secs

     total energy              =     -15.82969331 Ry
     Harris-Foulkes estimate   =     -15.83004360 Ry
     estimated scf accuracy    <       0.00238178 Ry

     iteration #  3     ecut=    18.00 Ry     beta=0.70
     Davidson diagonalization with overlap
     ethr =  2.98E-05,  avg # of iterations =  1.9

     total cpu time spent up to now is        0.1 secs

     total energy              =     -15.83008265 Ry
     Harris-Foulkes estimate   =     -15.83011079 Ry
     estimated scf accuracy    <       0.00007067 Ry

     iteration #  4     ecut=    18.00 Ry     beta=0.70
     Davidson diagonalization with overlap
     ethr =  8.83E-07,  avg # of iterations =  2.1

     total cpu time spent up to now is        0.1 secs

     total energy              =     -15.83009977 Ry
     Harris-Foulkes estimate   =     -15.83010234 Ry
     estimated scf accuracy    <       0.00000573 Ry

     iteration #  5     ecut=    18.00 Ry     beta=0.70
     Davidson diagonalization with overlap
     ethr =  7.16E-08,  avg # of iterations =  2.1

     total cpu time spent up to now is        0.1 secs

     total energy              =     -15.83010074 Ry
     Harris-Foulkes estimate   =     -15.83010077 Ry
     estimated scf accuracy    <       0.00000008 Ry

     iteration #  6     ecut=    18.00 Ry     beta=0.70
     Davidson diagonalization with overlap
     ethr =  9.63E-10,  avg # of iterations =  2.5

     total cpu time spent up to now is        0.2 secs

     total energy              =     -15.83010076 Ry
     Harris-Foulkes estimate   =     -15.83010076 Ry
     estimated scf accuracy    <          1.7E-09 Ry

     iteration #  7     ecut=    18.00 Ry     beta=0.70
     Davidson diagonalization with overlap
     ethr =  2.09E-11,  avg # of iterations =  2.8

     total cpu time spent up to now is        0.2 secs

     End of self-consistent calculation

          k = 0.0000 0.0000 0.0000 (   331 PWs)   bands (ev):

    -5.7443   6.4009   6.4009   6.4009

          k = 0.1768 0.1768-0.1768 (   332 PWs)   bands (ev):

    -4.9245   2.4087   5.6131   5.6131

          k =-0.3536-0.3536 0.3536 (   344 PWs)   bands (ev):

    -3.3220  -0.7385   5.1621   5.1621

          k = 0.3536 0.0000 0.0000 (   343 PWs)   bands (ev):

    -4.6368   2.9022   4.4347   4.4347

          k =-0.1768-0.5303 0.5303 (   338 PWs)   bands (ev):

    -2.9412  -0.0565   2.7336   4.1128

          k = 0.0000-0.3536 0.3536 (   339 PWs)   bands (ev):

    -3.6403   0.8753   2.4900   5.0256

          k =-0.7071 0.0000 0.0000 (   342 PWs)   bands (ev):

    -1.4911  -1.4911   3.4425   3.4425

          k =-0.7071 0.3536 0.0000 (   328 PWs)   bands (ev):

    -1.3034  -1.3034   2.3727   2.3727

     highest occupied level (ev):     6.4009

!    total energy              =     -15.83010076 Ry
     Harris-Foulkes estimate   =     -15.83010076 Ry
     estimated scf accuracy    <          6.0E-12 Ry

     The total energy is the sum of the following terms:

     one-electron contribution =       4.86876060 Ry
     hartree contribution      =       1.09113468 Ry
     xc contribution           =      -4.83492827 Ry
     ewald contribution        =     -16.95506778 Ry

     convergence has been achieved in   7 iterations

     Forces acting on atoms (Ry/au):

     atom    1 type  1   force =    -0.00000000   -0.00000000   -0.00000000
     atom    2 type  1   force =     0.00000000    0.00000000    0.00000000

     Total force =     0.000000     Total SCF correction =     0.000000


     entering subroutine stress ...

          total   stress  (Ry/bohr**3)                   (kbar)     P=    5.43
   0.00003688  -0.00000000  -0.00000000          5.43     -0.00     -0.00
  -0.00000000   0.00003688  -0.00000000         -0.00      5.43     -0.00
  -0.00000000  -0.00000000   0.00003688         -0.00     -0.00      5.43


     BFGS Geometry Optimization

     number of scf cycles    =   1
     number of bfgs steps    =   0

     enthalpy new            =     -15.8301007610 Ry

     new trust radius        =       0.0029888090 bohr
     new conv_thr            =            1.0E-10 Ry

     new unit-cell volume =    263.44147 a.u.^3 (    39.03800 Ang^3 )

CELL_PARAMETERS (angstrom)
  -0.000000000   2.692480154   2.692480154
   2.692480154  -0.000000000   2.692480154
   2.692480154   2.692480154  -0.000000000

ATOMIC_POSITIONS (angstrom)
Si      -0.000000000  -0.000000000  -0.000000000
Si       1.346240077   1.346240077   1.346240077



     Writing output data file pwscf.save
     NEW-OLD atomic charge density approx. for the potential
     extrapolated charge    8.02208, renormalised to    8.00000

     total cpu time spent up to now is        0.3 secs

     Self-consistent Calculation

     iteration #  1     ecut=    18.00 Ry     beta=0.70
     Davidson diagonalization with overlap
     ethr =  1.00E-06,  avg # of iterations =  1.8

     Threshold (ethr) on eigenvalues was too large:
     Diagonalizing with lowered threshold

     Davidson diagonalization with overlap
     ethr =  2.86E-08,  avg # of iterations =  1.9

     total cpu time spent up to now is        0.3 secs

     total energy              =     -15.83011542 Ry
     Harris-Foulkes estimate   =     -15.84148020 Ry
     estimated scf accuracy    <       0.00000246 Ry

     iteration #  2     ecut=    18.00 Ry     beta=0.70
     Davidson diagonalization with overlap
     ethr =  3.07E-08,  avg # of iterations =  2.9

     total cpu time spent up to now is        0.3 secs

     total energy              =     -15.83012067 Ry
     Harris-Foulkes estimate   =     -15.83012143 Ry
     estimated scf accuracy    <       0.00000232 Ry

     iteration #  3     ecut=    18.00 Ry     beta=0.70
     Davidson diagonalization with overlap
     ethr =  2.90E-08,  avg # of iterations =  1.0

     total cpu time spent up to now is        0.4 secs

     total energy              =     -15.83012037 Ry
     Harris-Foulkes estimate   =     -15.83012073 Ry
     estimated scf accuracy    <       0.00000065 Ry

     iteration #  4     ecut=    18.00 Ry     beta=0.70
     Davidson diagonalization with overlap
     ethr =  8.10E-09,  avg # of iterations =  2.0

     total cpu time spent up to now is        0.4 secs

     total energy              =     -15.83012048 Ry
     Harris-Foulkes estimate   =     -15.83012050 Ry
     estimated scf accuracy    <       0.00000004 Ry

     iteration #  5     ecut=    18.00 Ry     beta=0.70
     Davidson diagonalization with overlap
     ethr =  5.51E-10,  avg # of iterations =  1.2

     total cpu time spent up to now is        0.4 secs

     total energy              =     -15.83012048 Ry
     Harris-Foulkes estimate   =     -15.83012048 Ry
     estimated scf accuracy    <          6.8E-09 Ry

     iteration #  6     ecut=    18.00 Ry     beta=0.70
     Davidson diagonalization with overlap
     ethr =  8.52E-11,  avg # of iterations =  1.6

     total cpu time spent up to now is        0.4 secs

     End of self-consistent calculation

          k = 0.0000 0.0000 0.0000 (   331 PWs)   bands (ev):

    -5.7542   6.3716   6.3716   6.3716

          k = 0.1766 0.1766-0.1766 (   332 PWs)   bands (ev):

    -4.9363   2.3849   5.5856   5.5856

          k =-0.3532-0.3532 0.3532 (   344 PWs)   bands (ev):

    -3.3390  -0.7544   5.1352   5.1352

          k = 0.3532 0.0000 0.0000 (   343 PWs)   bands (ev):

    -4.6493   2.8726   4.4106   4.4106

          k =-0.1766-0.5298 0.5298 (   338 PWs)   bands (ev):

    -2.9584  -0.0779   2.7132   4.0892

          k = 0.0000-0.3532 0.3532 (   339 PWs)   bands (ev):

    -3.6555   0.8513   2.4713   4.9994

          k =-0.7065 0.0000 0.0000 (   342 PWs)   bands (ev):

    -1.5111  -1.5111   3.4205   3.4205

          k =-0.7065 0.3532 0.0000 (   328 PWs)   bands (ev):

    -1.3248  -1.3248   2.3552   2.3552

     highest occupied level (ev):     6.3716

!    total energy              =     -15.83012048 Ry
     Harris-Foulkes estimate   =     -15.83012048 Ry
     estimated scf accuracy    <          7.2E-11 Ry

     The total energy is the sum of the following terms:

     one-electron contribution =       4.84783400 Ry
     hartree contribution      =       1.09336483 Ry
     xc contribution           =      -4.83186954 Ry
     ewald contribution        =     -16.93944976 Ry

     convergence has been achieved in   6 iterations

     Forces acting on atoms (Ry/au):

     atom    1 type  1   force =    -0.00000000    0.00000000   -0.00000000
     atom    2 type  1   force =     0.00000000   -0.00000000    0.00000000

     Total force =     0.000000     Total SCF correction =     0.000000


     entering subroutine stress ...

          total   stress  (Ry/bohr**3)                   (kbar)     P=    2.55
   0.00001736   0.00000000   0.00000000          2.55      0.00      0.00
   0.00000000   0.00001736   0.00000000          0.00      2.55      0.00
   0.00000000   0.00000000   0.00001736          0.00      0.00      2.55


     number of scf cycles    =   2
     number of bfgs steps    =   1

     enthalpy old            =     -15.8301007610 Ry
     enthalpy new            =     -15.8301204820 Ry

     CASE: enthalpy_new < enthalpy_old

     new trust radius        =       0.0026698988 bohr
     new conv_thr            =            1.0E-12 Ry

     new unit-cell volume =    264.09202 a.u.^3 (    39.13440 Ang^3 )

CELL_PARAMETERS (angstrom)
  -0.000000000   2.694694652   2.694694652
   2.694694652  -0.000000000   2.694694652
   2.694694652   2.694694652  -0.000000000

ATOMIC_POSITIONS (angstrom)
Si      -0.000000000  -0.000000000  -0.000000000
Si       1.347347326   1.347347326   1.347347326



     Writing output data file pwscf.save
     NEW-OLD atomic charge density approx. for the potential
     extrapolated charge    8.01970, renormalised to    8.00000

     total cpu time spent up to now is        0.5 secs

     Self-consistent Calculation

     iteration #  1     ecut=    18.00 Ry     beta=0.70
     Davidson diagonalization with overlap
     ethr =  1.00E-06,  avg # of iterations =  1.1

     Threshold (ethr) on eigenvalues was too large:
     Diagonalizing with lowered threshold

     Davidson diagonalization with overlap
     ethr =  2.38E-08,  avg # of iterations =  2.1

     total cpu time spent up to now is        0.5 secs

     total energy              =     -15.83012216 Ry
     Harris-Foulkes estimate   =     -15.84024288 Ry
     estimated scf accuracy    <       0.00000195 Ry

     iteration #  2     ecut=    18.00 Ry     beta=0.70
     Davidson diagonalization with overlap
     ethr =  2.43E-08,  avg # of iterations =  2.9

     total cpu time spent up to now is        0.6 secs

     total energy              =     -15.83012632 Ry
     Harris-Foulkes estimate   =     -15.83012693 Ry
     estimated scf accuracy    <       0.00000184 Ry

     iteration #  3     ecut=    18.00 Ry     beta=0.70
     Davidson diagonalization with overlap
     ethr =  2.30E-08,  avg # of iterations =  1.0

     total cpu time spent up to now is        0.6 secs

     total energy              =     -15.83012609 Ry
     Harris-Foulkes estimate   =     -15.83012637 Ry
     estimated scf accuracy    <       0.00000051 Ry

     iteration #  4     ecut=    18.00 Ry     beta=0.70
     Davidson diagonalization with overlap
     ethr =  6.42E-09,  avg # of iterations =  2.0

     total cpu time spent up to now is        0.6 secs

     total energy              =     -15.83012618 Ry
     Harris-Foulkes estimate   =     -15.83012619 Ry
     estimated scf accuracy    <       0.00000003 Ry

     iteration #  5     ecut=    18.00 Ry     beta=0.70
     Davidson diagonalization with overlap
     ethr =  4.31E-10,  avg # of iterations =  1.2

     total cpu time spent up to now is        0.6 secs

     total energy              =     -15.83012618 Ry
     Harris-Foulkes estimate   =     -15.83012618 Ry
     estimated scf accuracy    <          5.6E-09 Ry

     iteration #  6     ecut=    18.00 Ry     beta=0.70
     Davidson diagonalization with overlap
     ethr =  6.95E-11,  avg # of iterations =  1.6

     total cpu time spent up to now is        0.6 secs

     total energy              =     -15.83012618 Ry
     Harris-Foulkes estimate   =     -15.83012618 Ry
     estimated scf accuracy    <          5.4E-11 Ry

     iteration #  7     ecut=    18.00 Ry     beta=0.70
     Davidson diagonalization with overlap
     ethr =  6.79E-13,  avg # of iterations =  2.9

     total cpu time spent up to now is        0.6 secs

     total energy              =     -15.83012618 Ry
     Harris-Foulkes estimate   =     -15.83012618 Ry
     estimated scf accuracy    <          1.5E-11 Ry

     iteration #  8     ecut=    18.00 Ry     beta=0.70
     Davidson diagonalization with overlap
     ethr =  1.87E-13,  avg # of iterations =  1.0

     total cpu time spent up to now is        0.7 secs

     total energy              =     -15.83012618 Ry
     Harris-Foulkes estimate   =     -15.83012618 Ry
     estimated scf accuracy    <          7.3E-12 Ry

     iteration #  9     ecut=    18.00 Ry     beta=0.70
     Davidson diagonalization with overlap
     ethr =  1.00E-13,  avg # of iterations =  1.0

     total cpu time spent up to now is        0.7 secs

     total energy              =     -15.83012618 Ry
     Harris-Foulkes estimate   =     -15.83012618 Ry
     estimated scf accuracy    <          1.1E-12 Ry

     iteration # 10     ecut=    18.00 Ry     beta=0.70
     Davidson diagonalization with overlap
     ethr =  1.00E-13,  avg # of iterations =  1.0

     total cpu time spent up to now is        0.7 secs

     End of self-consistent calculation

          k = 0.0000 0.0000 0.0000 (   331 PWs)   bands (ev):

    -5.7630   6.3455   6.3455   6.3455

          k = 0.1765 0.1765-0.1765 (   332 PWs)   bands (ev):

    -4.9469   2.3636   5.5611   5.5611

          k =-0.3529-0.3529 0.3529 (   344 PWs)   bands (ev):

    -3.3542  -0.7685   5.1113   5.1113

          k = 0.3529 0.0000 0.0000 (   343 PWs)   bands (ev):

    -4.6604   2.8462   4.3891   4.3891

          k =-0.1765-0.5294 0.5294 (   338 PWs)   bands (ev):

    -2.9736  -0.0970   2.6951   4.0681

          k = 0.0000-0.3529 0.3529 (   339 PWs)   bands (ev):

    -3.6690   0.8300   2.4547   4.9761

          k =-0.7059 0.0000 0.0000 (   342 PWs)   bands (ev):

    -1.5290  -1.5290   3.4010   3.4010

          k =-0.7059 0.3529 0.0000 (   328 PWs)   bands (ev):

    -1.3438  -1.3438   2.3397   2.3397

     highest occupied level (ev):     6.3455

!    total energy              =     -15.83012618 Ry
     Harris-Foulkes estimate   =     -15.83012618 Ry
     estimated scf accuracy    <          5.0E-14 Ry

     The total energy is the sum of the following terms:

     one-electron contribution =       4.82918503 Ry
     hartree contribution      =       1.09536587 Ry
     xc contribution           =      -4.82914814 Ry
     ewald contribution        =     -16.92552894 Ry

     convergence has been achieved in  10 iterations

     Forces acting on atoms (Ry/au):

     atom    1 type  1   force =     0.00000000    0.00000000   -0.00000000
     atom    2 type  1   force =     0.00000000    0.00000000    0.00000000

     Total force =     0.000000     Total SCF correction =     0.000000


     entering subroutine stress ...

          total   stress  (Ry/bohr**3)                   (kbar)     P=    0.02
   0.00000016   0.00000000   0.00000000          0.02      0.00      0.00
   0.00000000   0.00000016   0.00000000          0.00      0.02      0.00
   0.00000000   0.00000000   0.00000016          0.00      0.00      0.02


     bfgs converged in   3 scf cycles and   2 bfgs steps
     (criteria: energy <  1.0E-04, force <  1.0E-03, cell <  5.0E-01)

     End of BFGS Geometry Optimization

     Final enthalpy =     -15.8301261793 Ry
Begin final coordinates
     new unit-cell volume =    264.09202 a.u.^3 (    39.13440 Ang^3 )

CELL_PARAMETERS (angstrom)
  -0.000000000   2.694694652   2.694694652
   2.694694652  -0.000000000   2.694694652
   2.694694652   2.694694652  -0.000000000

ATOMIC_POSITIONS (angstrom)
Si      -0.000000000  -0.000000000  -0.000000000
Si       1.347347326   1.347347326   1.347347326
End final coordinates



     A final scf calculation at the relaxed structure.
     The G-vectors are recalculated for the final unit cell
     Results may differ from those at the preceding step.

   Info: using nr1, nr2, nr3 values from input

   Info: using nr1, nr2, nr3 values from input

     G-vector sticks info
     --------------------
     sticks:   dense  smooth     PW     G-vecs:    dense   smooth      PW
     Sum         253     253     85                 2733     2733     531



     bravais-lattice index     =            0
     lattice parameter (alat)  =       7.1890  a.u.
     unit-cell volume          =     264.0920 (a.u.)^3
     number of atoms/cell      =            2
     number of atomic types    =            1
     number of electrons       =         8.00
     number of Kohn-Sham states=            4
     kinetic-energy cutoff     =      18.0000  Ry
     charge density cutoff     =      72.0000  Ry
     convergence threshold     =      1.0E-12
     mixing beta               =       0.7000
     number of iterations used =            8  plain     mixing
     Exchange-correlation      =  SLA  PZ   NOGX NOGC ( 1  1  0  0 0 0)

     celldm(1)=   7.188961  celldm(2)=   0.000000  celldm(3)=   0.000000
     celldm(4)=   0.000000  celldm(5)=   0.000000  celldm(6)=   0.000000

     crystal axes: (cart. coord. in units of alat)
               a(1) = (  -0.000000   0.708341   0.708341 )  
               a(2) = (   0.708341  -0.000000   0.708341 )  
               a(3) = (   0.708341   0.708341  -0.000000 )  

     reciprocal axes: (cart. coord. in units 2 pi/alat)
               b(1) = ( -0.705875  0.705875  0.705875 )  
               b(2) = (  0.705875 -0.705875  0.705875 )  
               b(3) = (  0.705875  0.705875 -0.705875 )  


     PseudoPot. # 1 for Si read from file:
     /Users/jonpvandermause/AP275/qe-6.0/pseudo/Si.pz-vbc.UPF
     MD5 check sum: 6dfa03ddd5817404712e03e4d12deb78
     Pseudo is Norm-conserving, Zval =  4.0
     Generated by new atomic code, or converted to UPF format
     Using radial grid of  431 points,  2 beta functions with: 
                l(1) =   0
                l(2) =   1

     atomic species   valence    mass     pseudopotential
        Si             4.00    28.08600     Si( 1.00)

     48 Sym. Ops., with inversion, found (24 have fractional translation)



   Cartesian axes

     site n.     atom                  positions (alat units)
         1           Si  tau(   1) = (  -0.0000000  -0.0000000  -0.0000000  )
         2           Si  tau(   2) = (   0.3541704   0.3541704   0.3541704  )

     number of k points=     8
                       cart. coord. in units 2pi/alat
        k(    1) = (   0.0000000   0.0000000   0.0000000), wk =   0.0312500
        k(    2) = (   0.1764687   0.1764687  -0.1764687), wk =   0.2500000
        k(    3) = (  -0.3529374  -0.3529374   0.3529374), wk =   0.1250000
        k(    4) = (   0.3529374   0.0000000   0.0000000), wk =   0.1875000
        k(    5) = (  -0.1764687  -0.5294062   0.5294062), wk =   0.7500000
        k(    6) = (   0.0000000  -0.3529374   0.3529374), wk =   0.3750000
        k(    7) = (  -0.7058749   0.0000000   0.0000000), wk =   0.0937500
        k(    8) = (  -0.7058749   0.3529374   0.0000000), wk =   0.1875000

     Dense  grid:     2733 G-vectors     FFT dimensions: (  20,  20,  20)

     Estimated max dynamical RAM per process >       1.96Mb

     Initial potential from superposition of free atoms

     starting charge    7.99901, renormalised to    8.00000
     Starting wfc are    8 randomized atomic wfcs

     Writing output data file pwscf.save

     total cpu time spent up to now is        0.8 secs

     Self-consistent Calculation

     iteration #  1     ecut=    18.00 Ry     beta=0.70
     Davidson diagonalization with overlap
     ethr =  1.00E-06,  avg # of iterations =  6.1

     total cpu time spent up to now is        0.8 secs

     total energy              =     -15.82647786 Ry
     Harris-Foulkes estimate   =     -15.85069435 Ry
     estimated scf accuracy    <       0.06940504 Ry

     iteration #  2     ecut=    18.00 Ry     beta=0.70
     Davidson diagonalization with overlap
     ethr =  8.68E-04,  avg # of iterations =  1.0

     total cpu time spent up to now is        0.8 secs

     total energy              =     -15.83016424 Ry
     Harris-Foulkes estimate   =     -15.83047252 Ry
     estimated scf accuracy    <       0.00228461 Ry

     iteration #  3     ecut=    18.00 Ry     beta=0.70
     Davidson diagonalization with overlap
     ethr =  2.86E-05,  avg # of iterations =  2.0

     total cpu time spent up to now is        0.9 secs

     total energy              =     -15.83064679 Ry
     Harris-Foulkes estimate   =     -15.83067088 Ry
     estimated scf accuracy    <       0.00006392 Ry

     iteration #  4     ecut=    18.00 Ry     beta=0.70
     Davidson diagonalization with overlap
     ethr =  7.99E-07,  avg # of iterations =  2.0

     total cpu time spent up to now is        0.9 secs

     total energy              =     -15.83065876 Ry
     Harris-Foulkes estimate   =     -15.83066041 Ry
     estimated scf accuracy    <       0.00000439 Ry

     iteration #  5     ecut=    18.00 Ry     beta=0.70
     Davidson diagonalization with overlap
     ethr =  5.49E-08,  avg # of iterations =  1.9

     total cpu time spent up to now is        0.9 secs

     total energy              =     -15.83065938 Ry
     Harris-Foulkes estimate   =     -15.83065940 Ry
     estimated scf accuracy    <       0.00000004 Ry

     iteration #  6     ecut=    18.00 Ry     beta=0.70
     Davidson diagonalization with overlap
     ethr =  5.05E-10,  avg # of iterations =  2.2

     total cpu time spent up to now is        0.9 secs

     total energy              =     -15.83065939 Ry
     Harris-Foulkes estimate   =     -15.83065939 Ry
     estimated scf accuracy    <          3.4E-10 Ry

     iteration #  7     ecut=    18.00 Ry     beta=0.70
     Davidson diagonalization with overlap
     ethr =  4.26E-12,  avg # of iterations =  3.2

     total cpu time spent up to now is        0.9 secs

     total energy              =     -15.83065939 Ry
     Harris-Foulkes estimate   =     -15.83065939 Ry
     estimated scf accuracy    <          5.9E-12 Ry

     iteration #  8     ecut=    18.00 Ry     beta=0.70
     Davidson diagonalization with overlap
     ethr =  1.00E-13,  avg # of iterations =  2.4

     total cpu time spent up to now is        0.9 secs

     total energy              =     -15.83065939 Ry
     Harris-Foulkes estimate   =     -15.83065939 Ry
     estimated scf accuracy    <          3.9E-12 Ry

     iteration #  9     ecut=    18.00 Ry     beta=0.70
     Davidson diagonalization with overlap
     ethr =  1.00E-13,  avg # of iterations =  1.2

     total cpu time spent up to now is        1.0 secs

     End of self-consistent calculation

          k = 0.0000 0.0000 0.0000 (   331 PWs)   bands (ev):

    -5.7628   6.3457   6.3457   6.3457

          k = 0.1765 0.1765-0.1765 (   344 PWs)   bands (ev):

    -4.9468   2.3610   5.5597   5.5597

          k =-0.3529-0.3529 0.3529 (   344 PWs)   bands (ev):

    -3.3540  -0.7684   5.1115   5.1115

          k = 0.3529 0.0000 0.0000 (   343 PWs)   bands (ev):

    -4.6603   2.8464   4.3893   4.3893

          k =-0.1765-0.5294 0.5294 (   346 PWs)   bands (ev):

    -2.9754  -0.0991   2.6951   4.0680

          k = 0.0000-0.3529 0.3529 (   339 PWs)   bands (ev):

    -3.6689   0.8301   2.4549   4.9763

          k =-0.7059 0.0000 0.0000 (   342 PWs)   bands (ev):

    -1.5289  -1.5289   3.4011   3.4011

          k =-0.7059 0.3529 0.0000 (   360 PWs)   bands (ev):

    -1.3482  -1.3482   2.3384   2.3384

     highest occupied level (ev):     6.3457

!    total energy              =     -15.83065939 Ry
     Harris-Foulkes estimate   =     -15.83065939 Ry
     estimated scf accuracy    <          6.1E-16 Ry

     The total energy is the sum of the following terms:

     one-electron contribution =       4.82867391 Ry
     hartree contribution      =       1.09552194 Ry
     xc contribution           =      -4.82932631 Ry
     ewald contribution        =     -16.92552894 Ry

     convergence has been achieved in   9 iterations

     Forces acting on atoms (Ry/au):

     atom    1 type  1   force =    -0.00000000    0.00000000    0.00000000
     atom    2 type  1   force =     0.00000000    0.00000000    0.00000000

     Total force =     0.000000     Total SCF correction =     0.000000


     entering subroutine stress ...

          total   stress  (Ry/bohr**3)                   (kbar)     P=    0.83
   0.00000562   0.00000000   0.00000000          0.83      0.00      0.00
   0.00000000   0.00000562   0.00000000          0.00      0.83      0.00
   0.00000000   0.00000000   0.00000562          0.00      0.00      0.83


     Writing output data file pwscf.save

     init_run     :      0.06s CPU      0.07s WALL (       2 calls)
     electrons    :      0.50s CPU      0.57s WALL (       4 calls)
     update_pot   :      0.08s CPU      0.08s WALL (       2 calls)
     forces       :      0.05s CPU      0.05s WALL (       4 calls)
     stress       :      0.08s CPU      0.08s WALL (       4 calls)

     Called by init_run:
     wfcinit      :      0.02s CPU      0.02s WALL (       2 calls)
     potinit      :      0.01s CPU      0.01s WALL (       2 calls)

     Called by electrons:
     c_bands      :      0.40s CPU      0.45s WALL (      35 calls)
     sum_band     :      0.07s CPU      0.08s WALL (      35 calls)
     v_of_rho     :      0.01s CPU      0.02s WALL (      36 calls)
     mix_rho      :      0.01s CPU      0.01s WALL (      35 calls)

     Called by c_bands:
     init_us_2    :      0.03s CPU      0.03s WALL (     640 calls)
     cegterg      :      0.38s CPU      0.42s WALL (     280 calls)

     Called by sum_band:

     Called by *egterg:
     h_psi        :      0.29s CPU      0.31s WALL (     838 calls)
     g_psi        :      0.01s CPU      0.01s WALL (     542 calls)
     cdiaghg      :      0.03s CPU      0.03s WALL (     782 calls)

     Called by h_psi:
     h_psi:pot    :      0.28s CPU      0.31s WALL (     838 calls)
     h_psi:calbec :      0.01s CPU      0.01s WALL (     838 calls)
     vloc_psi     :      0.25s CPU      0.26s WALL (     838 calls)
     add_vuspsi   :      0.02s CPU      0.03s WALL (     838 calls)

     General routines
     calbec       :      0.01s CPU      0.01s WALL (     998 calls)
     fft          :      0.01s CPU      0.01s WALL (     168 calls)
     fftw         :      0.23s CPU      0.25s WALL (    7484 calls)
     davcio       :      0.00s CPU      0.00s WALL (      16 calls)

     Parallel routines
     fft_scatter  :      0.03s CPU      0.03s WALL (    7652 calls)

     PWSCF        :     0.91s CPU         1.02s WALL


   This run was terminated on:  15:52:11  17Sep2018            

=------------------------------------------------------------------------------=
   JOB DONE.
=------------------------------------------------------------------------------=
