
     Program PWSCF v.6.0 (svn rev. 13079) starts on 17Sep2018 at 14:49:37 

     This program is part of the open-source Quantum ESPRESSO suite
     for quantum simulation of materials; please cite
         "P. Giannozzi et al., J. Phys.:Condens. Matter 21 395502 (2009);
          URL http://www.quantum-espresso.org", 
     in publications or presentations arising from this work. More details at
     http://www.quantum-espresso.org/quote

     Parallel version (MPI), running on     1 processors
     Waiting for input...
     Reading input from standard input

     Current dimensions of program PWSCF are:
     Max number of different atomic species (ntypx) = 10
     Max number of k-points (npk) =  40000
     Max angular momentum in pseudopotentials (lmaxx) =  3
               file H.pbe-kjpaw.UPF: wavefunction(s)  1S renormalized

     Subspace diagonalization in iterative solution of the eigenvalue problem:
     a serial algorithm will be used


     G-vector sticks info
     --------------------
     sticks:   dense  smooth     PW     G-vecs:    dense   smooth      PW
     Sum        2053    2053    509                69791    69791    8709



     bravais-lattice index     =            0
     lattice parameter (alat)  =      18.8973  a.u.
     unit-cell volume          =    6748.3346 (a.u.)^3
     number of atoms/cell      =            2
     number of atomic types    =            1
     number of electrons       =         2.00
     number of Kohn-Sham states=            1
     kinetic-energy cutoff     =      18.0000  Ry
     charge density cutoff     =      72.0000  Ry
     convergence threshold     =      1.0E-10
     mixing beta               =       0.7000
     number of iterations used =            8  plain     mixing
     Exchange-correlation      =  SLA  PW   PBX  PBC ( 1  4  3  4 0 0)
     nstep                     =           50


     celldm(1)=  18.897261  celldm(2)=   0.000000  celldm(3)=   0.000000
     celldm(4)=   0.000000  celldm(5)=   0.000000  celldm(6)=   0.000000

     crystal axes: (cart. coord. in units of alat)
               a(1) = (   1.000000   0.000000   0.000000 )  
               a(2) = (   0.000000   1.000000   0.000000 )  
               a(3) = (   0.000000   0.000000   1.000000 )  

     reciprocal axes: (cart. coord. in units 2 pi/alat)
               b(1) = (  1.000000  0.000000  0.000000 )  
               b(2) = (  0.000000  1.000000  0.000000 )  
               b(3) = (  0.000000  0.000000  1.000000 )  


     PseudoPot. # 1 for  H read from file:
     /Users/jonpvandermause/AP275/qe-6.0/pseudo/H.pbe-kjpaw.UPF
     MD5 check sum: f0c5446d8b45f1c04d25babcc032f843
     Pseudo is Projector augmented-wave, Zval =  1.0
     Generated using "atomic" code by A. Dal Corso  (Quantum ESPRESSO distribution)
     Shape of augmentation charge: PSQ
     Using radial grid of  929 points,  2 beta functions with: 
                l(1) =   0
                l(2) =   0
     Q(r) pseudized with 0 coefficients 


     atomic species   valence    mass     pseudopotential
        H              1.00     1.00800      H( 1.00)

     No symmetry found



   Cartesian axes

     site n.     atom                  positions (alat units)
         1           H   tau(   1) = (   0.0000000   0.0000000   0.0000000  )
         2           H   tau(   2) = (   0.0000000   0.0000000   0.0700000  )

     number of k points=     1
                       cart. coord. in units 2pi/alat
        k(    1) = (   0.0000000   0.0000000   0.0000000), wk =   2.0000000

     Dense  grid:    69791 G-vectors     FFT dimensions: (  54,  54,  54)

     Estimated max dynamical RAM per process >      40.49Mb

     Initial potential from superposition of free atoms
     Check: negative starting charge=   -0.033272

     starting charge    1.99998, renormalised to    2.00000

     negative rho (up, down):  3.327E-02 0.000E+00
     Starting wfc are    2 randomized atomic wfcs
     Checking if some PAW data can be deallocated... 

     total cpu time spent up to now is        0.3 secs

     Self-consistent Calculation

     iteration #  1     ecut=    18.00 Ry     beta=0.70
     Davidson diagonalization with overlap
     ethr =  1.00E-02,  avg # of iterations =  2.0

     negative rho (up, down):  5.603E-02 0.000E+00

     total cpu time spent up to now is        0.4 secs

     total energy              =      -2.29162911 Ry
     Harris-Foulkes estimate   =      -2.35428844 Ry
     estimated scf accuracy    <       0.12441607 Ry

     iteration #  2     ecut=    18.00 Ry     beta=0.70
     Davidson diagonalization with overlap
     ethr =  6.22E-03,  avg # of iterations =  1.0

     negative rho (up, down):  6.033E-02 0.000E+00

     total cpu time spent up to now is        0.5 secs

     total energy              =      -2.30035463 Ry
     Harris-Foulkes estimate   =      -2.30108291 Ry
     estimated scf accuracy    <       0.00128332 Ry

     iteration #  3     ecut=    18.00 Ry     beta=0.70
     Davidson diagonalization with overlap
     ethr =  6.42E-05,  avg # of iterations =  2.0

     negative rho (up, down):  5.983E-02 0.000E+00

     total cpu time spent up to now is        0.6 secs

     total energy              =      -2.30070138 Ry
     Harris-Foulkes estimate   =      -2.30070625 Ry
     estimated scf accuracy    <       0.00001637 Ry

     iteration #  4     ecut=    18.00 Ry     beta=0.70
     Davidson diagonalization with overlap
     ethr =  8.18E-07,  avg # of iterations =  2.0

     negative rho (up, down):  5.990E-02 0.000E+00

     total cpu time spent up to now is        0.8 secs

     total energy              =      -2.30070367 Ry
     Harris-Foulkes estimate   =      -2.30070414 Ry
     estimated scf accuracy    <       0.00000101 Ry

     iteration #  5     ecut=    18.00 Ry     beta=0.70
     Davidson diagonalization with overlap
     ethr =  5.07E-08,  avg # of iterations =  2.0

     negative rho (up, down):  5.989E-02 0.000E+00

     total cpu time spent up to now is        0.9 secs

     total energy              =      -2.30070380 Ry
     Harris-Foulkes estimate   =      -2.30070379 Ry
     estimated scf accuracy    <          3.3E-09 Ry

     iteration #  6     ecut=    18.00 Ry     beta=0.70
     Davidson diagonalization with overlap
     ethr =  1.66E-10,  avg # of iterations =  2.0

     negative rho (up, down):  5.990E-02 0.000E+00

     total cpu time spent up to now is        1.0 secs

     total energy              =      -2.30070380 Ry
     Harris-Foulkes estimate   =      -2.30070380 Ry
     estimated scf accuracy    <          7.7E-10 Ry

     iteration #  7     ecut=    18.00 Ry     beta=0.70
     Davidson diagonalization with overlap
     ethr =  3.86E-11,  avg # of iterations =  1.0

     negative rho (up, down):  5.990E-02 0.000E+00

     total cpu time spent up to now is        1.1 secs

     End of self-consistent calculation

          k = 0.0000 0.0000 0.0000 (  8709 PWs)   bands (ev):

   -10.4901

     highest occupied level (ev):   -10.4901

!    total energy              =      -2.30070380 Ry
     Harris-Foulkes estimate   =      -2.30070380 Ry
     estimated scf accuracy    <          3.1E-11 Ry

     total all-electron energy =        -2.300695 Ry

     The total energy is the sum of the following terms:

     one-electron contribution =      -3.88695634 Ry
     hartree contribution      =       2.06776561 Ry
     xc contribution           =      -1.39370708 Ry
     ewald contribution        =       0.91245564 Ry
     one-center paw contrib.   =      -0.00026163 Ry

     convergence has been achieved in   7 iterations

     Forces acting on atoms (Ry/au):

     atom    1 type  1   force =    -0.00000000   -0.00000000   -0.08246929
     atom    2 type  1   force =     0.00000000    0.00000000    0.08246929

     Total force =     0.116629     Total SCF correction =     0.000002

     BFGS Geometry Optimization

     number of scf cycles    =   1
     number of bfgs steps    =   0

     energy   new            =      -2.3007038008 Ry

     new trust radius        =       0.0824692917 bohr
     new conv_thr            =            1.0E-10 Ry


ATOMIC_POSITIONS (angstrom)
H       -0.000000000  -0.000000000  -0.043640870
H        0.000000000   0.000000000   0.743640870



     Writing output data file pwscf.save
     Check: negative starting charge=   -0.033272
     NEW-OLD atomic charge density approx. for the potential
     Check: negative starting charge=   -0.034723

     negative rho (up, down):  5.987E-02 0.000E+00

     total cpu time spent up to now is        1.3 secs

     Self-consistent Calculation

     iteration #  1     ecut=    18.00 Ry     beta=0.70
     Davidson diagonalization with overlap
     ethr =  1.00E-06,  avg # of iterations =  4.0

     negative rho (up, down):  5.486E-02 0.000E+00

     total cpu time spent up to now is        1.4 secs

     total energy              =      -2.30309211 Ry
     Harris-Foulkes estimate   =      -2.30405217 Ry
     estimated scf accuracy    <       0.00217606 Ry

     iteration #  2     ecut=    18.00 Ry     beta=0.70
     Davidson diagonalization with overlap
     ethr =  1.09E-04,  avg # of iterations =  1.0

     negative rho (up, down):  5.425E-02 0.000E+00

     total cpu time spent up to now is        1.5 secs

     total energy              =      -2.30331459 Ry
     Harris-Foulkes estimate   =      -2.30330346 Ry
     estimated scf accuracy    <       0.00002237 Ry

     iteration #  3     ecut=    18.00 Ry     beta=0.70
     Davidson diagonalization with overlap
     ethr =  1.12E-06,  avg # of iterations =  2.0

     negative rho (up, down):  5.425E-02 0.000E+00

     total cpu time spent up to now is        1.7 secs

     total energy              =      -2.30332037 Ry
     Harris-Foulkes estimate   =      -2.30331919 Ry
     estimated scf accuracy    <       0.00000130 Ry

     iteration #  4     ecut=    18.00 Ry     beta=0.70
     Davidson diagonalization with overlap
     ethr =  6.48E-08,  avg # of iterations =  1.0

     negative rho (up, down):  5.425E-02 0.000E+00

     total cpu time spent up to now is        1.8 secs

     total energy              =      -2.30332041 Ry
     Harris-Foulkes estimate   =      -2.30332041 Ry
     estimated scf accuracy    <          2.3E-09 Ry

     iteration #  5     ecut=    18.00 Ry     beta=0.70
     Davidson diagonalization with overlap
     ethr =  1.17E-10,  avg # of iterations =  2.0

     negative rho (up, down):  5.425E-02 0.000E+00

     total cpu time spent up to now is        1.9 secs

     total energy              =      -2.30332041 Ry
     Harris-Foulkes estimate   =      -2.30332041 Ry
     estimated scf accuracy    <          5.8E-10 Ry

     iteration #  6     ecut=    18.00 Ry     beta=0.70
     Davidson diagonalization with overlap
     ethr =  2.88E-11,  avg # of iterations =  2.0

     negative rho (up, down):  5.425E-02 0.000E+00

     total cpu time spent up to now is        2.0 secs

     total energy              =      -2.30332041 Ry
     Harris-Foulkes estimate   =      -2.30332041 Ry
     estimated scf accuracy    <          2.6E-10 Ry

     iteration #  7     ecut=    18.00 Ry     beta=0.70
     Davidson diagonalization with overlap
     ethr =  1.31E-11,  avg # of iterations =  2.0

     negative rho (up, down):  5.425E-02 0.000E+00

     total cpu time spent up to now is        2.1 secs

     End of self-consistent calculation

          k = 0.0000 0.0000 0.0000 (  8709 PWs)   bands (ev):

   -10.0634

     highest occupied level (ev):   -10.0634

!    total energy              =      -2.30332041 Ry
     Harris-Foulkes estimate   =      -2.30332041 Ry
     estimated scf accuracy    <          1.6E-12 Ry

     total all-electron energy =        -2.303312 Ry

     The total energy is the sum of the following terms:

     one-electron contribution =      -3.65993211 Ry
     hartree contribution      =       1.95024692 Ry
     xc contribution           =      -1.33849356 Ry
     ewald contribution        =       0.74512795 Ry
     one-center paw contrib.   =      -0.00026962 Ry

     convergence has been achieved in   7 iterations

     Forces acting on atoms (Ry/au):

     atom    1 type  1   force =     0.00000000    0.00000000    0.03797653
     atom    2 type  1   force =    -0.00000000   -0.00000000   -0.03797653

     Total force =     0.053707     Total SCF correction =     0.000000

     number of scf cycles    =   2
     number of bfgs steps    =   1

     energy   old            =      -2.3007038008 Ry
     energy   new            =      -2.3033204118 Ry

     CASE: energy  _new < energy  _old

     new trust radius        =       0.0260025421 bohr
     new conv_thr            =            2.6E-11 Ry


ATOMIC_POSITIONS (angstrom)
H       -0.000000000  -0.000000000  -0.029880917
H        0.000000000   0.000000000   0.729880917



     Writing output data file pwscf.save
     Check: negative starting charge=   -0.034723
     NEW-OLD atomic charge density approx. for the potential
     Check: negative starting charge=   -0.034140

     negative rho (up, down):  5.360E-02 0.000E+00

     total cpu time spent up to now is        2.3 secs

     Self-consistent Calculation

     iteration #  1     ecut=    18.00 Ry     beta=0.70
     Davidson diagonalization with overlap
     ethr =  1.00E-06,  avg # of iterations =  3.0

     negative rho (up, down):  5.528E-02 0.000E+00

     total cpu time spent up to now is        2.4 secs

     total energy              =      -2.30452075 Ry
     Harris-Foulkes estimate   =      -2.30460974 Ry
     estimated scf accuracy    <       0.00019230 Ry

     iteration #  2     ecut=    18.00 Ry     beta=0.70
     Davidson diagonalization with overlap
     ethr =  9.61E-06,  avg # of iterations =  1.0

     negative rho (up, down):  5.559E-02 0.000E+00

     total cpu time spent up to now is        2.5 secs

     total energy              =      -2.30453885 Ry
     Harris-Foulkes estimate   =      -2.30453872 Ry
     estimated scf accuracy    <       0.00000198 Ry

     iteration #  3     ecut=    18.00 Ry     beta=0.70
     Davidson diagonalization with overlap
     ethr =  9.91E-08,  avg # of iterations =  2.0

     negative rho (up, down):  5.562E-02 0.000E+00

     total cpu time spent up to now is        2.6 secs

     total energy              =      -2.30453922 Ry
     Harris-Foulkes estimate   =      -2.30453930 Ry
     estimated scf accuracy    <       0.00000010 Ry

     iteration #  4     ecut=    18.00 Ry     beta=0.70
     Davidson diagonalization with overlap
     ethr =  4.85E-09,  avg # of iterations =  1.0

     negative rho (up, down):  5.563E-02 0.000E+00

     total cpu time spent up to now is        2.8 secs

     total energy              =      -2.30453922 Ry
     Harris-Foulkes estimate   =      -2.30453922 Ry
     estimated scf accuracy    <          6.2E-10 Ry

     iteration #  5     ecut=    18.00 Ry     beta=0.70
     Davidson diagonalization with overlap
     ethr =  3.08E-11,  avg # of iterations =  2.0

     negative rho (up, down):  5.563E-02 0.000E+00

     total cpu time spent up to now is        2.9 secs

     total energy              =      -2.30453922 Ry
     Harris-Foulkes estimate   =      -2.30453922 Ry
     estimated scf accuracy    <          6.8E-11 Ry

     iteration #  6     ecut=    18.00 Ry     beta=0.70
     Davidson diagonalization with overlap
     ethr =  3.40E-12,  avg # of iterations =  2.0

     negative rho (up, down):  5.563E-02 0.000E+00

     total cpu time spent up to now is        3.0 secs

     End of self-consistent calculation

          k = 0.0000 0.0000 0.0000 (  8709 PWs)   bands (ev):

   -10.1920

     highest occupied level (ev):   -10.1920

!    total energy              =      -2.30453922 Ry
     Harris-Foulkes estimate   =      -2.30453922 Ry
     estimated scf accuracy    <          2.4E-11 Ry

     total all-electron energy =        -2.304531 Ry

     The total energy is the sum of the following terms:

     one-electron contribution =      -3.72873856 Ry
     hartree contribution      =       1.98582542 Ry
     xc contribution           =      -1.35508319 Ry
     ewald contribution        =       0.79372534 Ry
     one-center paw contrib.   =      -0.00026822 Ry

     convergence has been achieved in   6 iterations

     Forces acting on atoms (Ry/au):

     atom    1 type  1   force =    -0.00000000   -0.00000000    0.00799029
     atom    2 type  1   force =     0.00000000    0.00000000   -0.00799029

     Total force =     0.011300     Total SCF correction =     0.000002

     number of scf cycles    =   3
     number of bfgs steps    =   2

     energy   old            =      -2.3033204118 Ry
     energy   new            =      -2.3045392204 Ry

     CASE: energy  _new < energy  _old

     new trust radius        =       0.0069287707 bohr
     new conv_thr            =            8.0E-12 Ry


ATOMIC_POSITIONS (angstrom)
H       -0.000000000  -0.000000000  -0.026214369
H        0.000000000   0.000000000   0.726214369



     Writing output data file pwscf.save
     Check: negative starting charge=   -0.034140
     NEW-OLD atomic charge density approx. for the potential
     Check: negative starting charge=   -0.033998

     negative rho (up, down):  5.548E-02 0.000E+00

     total cpu time spent up to now is        3.2 secs

     Self-consistent Calculation

     iteration #  1     ecut=    18.00 Ry     beta=0.70
     Davidson diagonalization with overlap
     ethr =  1.00E-06,  avg # of iterations =  1.0

     negative rho (up, down):  5.585E-02 0.000E+00

     total cpu time spent up to now is        3.3 secs

     total energy              =      -2.30458673 Ry
     Harris-Foulkes estimate   =      -2.30459089 Ry
     estimated scf accuracy    <       0.00000936 Ry

     iteration #  2     ecut=    18.00 Ry     beta=0.70
     Davidson diagonalization with overlap
     ethr =  4.68E-07,  avg # of iterations =  2.0

     negative rho (up, down):  5.607E-02 0.000E+00

     total cpu time spent up to now is        3.4 secs

     total energy              =      -2.30458684 Ry
     Harris-Foulkes estimate   =      -2.30458777 Ry
     estimated scf accuracy    <       0.00000111 Ry

     iteration #  3     ecut=    18.00 Ry     beta=0.70
     Davidson diagonalization with overlap
     ethr =  5.57E-08,  avg # of iterations =  2.0

     negative rho (up, down):  5.603E-02 0.000E+00

     total cpu time spent up to now is        3.5 secs

     total energy              =      -2.30458703 Ry
     Harris-Foulkes estimate   =      -2.30458706 Ry
     estimated scf accuracy    <       0.00000015 Ry

     iteration #  4     ecut=    18.00 Ry     beta=0.70
     Davidson diagonalization with overlap
     ethr =  7.29E-09,  avg # of iterations =  2.0

     negative rho (up, down):  5.604E-02 0.000E+00

     total cpu time spent up to now is        3.6 secs

     total energy              =      -2.30458704 Ry
     Harris-Foulkes estimate   =      -2.30458705 Ry
     estimated scf accuracy    <          6.0E-10 Ry

     iteration #  5     ecut=    18.00 Ry     beta=0.70
     Davidson diagonalization with overlap
     ethr =  3.02E-11,  avg # of iterations =  1.0

     negative rho (up, down):  5.604E-02 0.000E+00

     total cpu time spent up to now is        3.7 secs

     total energy              =      -2.30458704 Ry
     Harris-Foulkes estimate   =      -2.30458704 Ry
     estimated scf accuracy    <          4.9E-11 Ry

     iteration #  6     ecut=    18.00 Ry     beta=0.70
     Davidson diagonalization with overlap
     ethr =  2.44E-12,  avg # of iterations =  2.0

     negative rho (up, down):  5.604E-02 0.000E+00

     total cpu time spent up to now is        3.8 secs

     End of self-consistent calculation

          k = 0.0000 0.0000 0.0000 (  8709 PWs)   bands (ev):

   -10.2273

     highest occupied level (ev):   -10.2273

!    total energy              =      -2.30458704 Ry
     Harris-Foulkes estimate   =      -2.30458704 Ry
     estimated scf accuracy    <          2.7E-13 Ry

     total all-electron energy =        -2.304578 Ry

     The total energy is the sum of the following terms:

     one-electron contribution =      -3.74749423 Ry
     hartree contribution      =       1.99552363 Ry
     xc contribution           =      -1.35962519 Ry
     ewald contribution        =       0.80727646 Ry
     one-center paw contrib.   =      -0.00026771 Ry

     convergence has been achieved in   6 iterations

     Forces acting on atoms (Ry/au):

     atom    1 type  1   force =    -0.00000000   -0.00000000   -0.00110391
     atom    2 type  1   force =     0.00000000    0.00000000    0.00110391

     Total force =     0.001561     Total SCF correction =     0.000000

     number of scf cycles    =   4
     number of bfgs steps    =   3

     energy   old            =      -2.3045392204 Ry
     energy   new            =      -2.3045870409 Ry

     CASE: energy  _new < energy  _old

     new trust radius        =       0.0008410591 bohr
     new conv_thr            =            1.0E-12 Ry


ATOMIC_POSITIONS (angstrom)
H       -0.000000000  -0.000000000  -0.026659439
H        0.000000000   0.000000000   0.726659439



     Writing output data file pwscf.save
     Check: negative starting charge=   -0.033998
     NEW-OLD atomic charge density approx. for the potential
     Check: negative starting charge=   -0.034015

     negative rho (up, down):  5.605E-02 0.000E+00

     total cpu time spent up to now is        4.0 secs

     Self-consistent Calculation

     iteration #  1     ecut=    18.00 Ry     beta=0.70
     Davidson diagonalization with overlap
     ethr =  1.00E-06,  avg # of iterations =  2.0

     Threshold (ethr) on eigenvalues was too large:
     Diagonalizing with lowered threshold

     Davidson diagonalization with overlap
     ethr =  1.06E-08,  avg # of iterations =  1.0

     negative rho (up, down):  5.600E-02 0.000E+00

     total cpu time spent up to now is        4.1 secs

     total energy              =      -2.30458795 Ry
     Harris-Foulkes estimate   =      -2.30458792 Ry
     estimated scf accuracy    <       0.00000022 Ry

     iteration #  2     ecut=    18.00 Ry     beta=0.70
     Davidson diagonalization with overlap
     ethr =  1.08E-08,  avg # of iterations =  1.0

     negative rho (up, down):  5.599E-02 0.000E+00

     total cpu time spent up to now is        4.2 secs

     total energy              =      -2.30458800 Ry
     Harris-Foulkes estimate   =      -2.30458796 Ry
     estimated scf accuracy    <          2.3E-09 Ry

     iteration #  3     ecut=    18.00 Ry     beta=0.70
     Davidson diagonalization with overlap
     ethr =  1.16E-10,  avg # of iterations =  2.0

     negative rho (up, down):  5.598E-02 0.000E+00

     total cpu time spent up to now is        4.4 secs

     total energy              =      -2.30458801 Ry
     Harris-Foulkes estimate   =      -2.30458800 Ry
     estimated scf accuracy    <          1.1E-10 Ry

     iteration #  4     ecut=    18.00 Ry     beta=0.70
     Davidson diagonalization with overlap
     ethr =  5.34E-12,  avg # of iterations =  1.0

     negative rho (up, down):  5.598E-02 0.000E+00

     total cpu time spent up to now is        4.5 secs

     End of self-consistent calculation

          k = 0.0000 0.0000 0.0000 (  8709 PWs)   bands (ev):

   -10.2230

     highest occupied level (ev):   -10.2230

!    total energy              =      -2.30458801 Ry
     Harris-Foulkes estimate   =      -2.30458801 Ry
     estimated scf accuracy    <          7.9E-13 Ry

     total all-electron energy =        -2.304579 Ry

     The total energy is the sum of the following terms:

     one-electron contribution =      -3.74520751 Ry
     hartree contribution      =       1.99434047 Ry
     xc contribution           =      -1.35907062 Ry
     ewald contribution        =       0.80561742 Ry
     one-center paw contrib.   =      -0.00026778 Ry

     convergence has been achieved in   4 iterations

     Forces acting on atoms (Ry/au):

     atom    1 type  1   force =    -0.00000000   -0.00000000    0.00002462
     atom    2 type  1   force =     0.00000000    0.00000000   -0.00002462

     Total force =     0.000035     Total SCF correction =     0.000000

     bfgs converged in   5 scf cycles and   4 bfgs steps
     (criteria: energy <  1.0E-04, force <  1.0E-03)

     End of BFGS Geometry Optimization

     Final energy   =      -2.3045880106 Ry
Begin final coordinates

ATOMIC_POSITIONS (angstrom)
H       -0.000000000  -0.000000000  -0.026659439
H        0.000000000   0.000000000   0.726659439
End final coordinates



     Writing output data file pwscf.save

     init_run     :      0.16s CPU      0.19s WALL (       1 calls)
     electrons    :      3.02s CPU      3.54s WALL (       5 calls)
     update_pot   :      0.35s CPU      0.39s WALL (       4 calls)
     forces       :      0.15s CPU      0.18s WALL (       5 calls)

     Called by init_run:
     wfcinit      :      0.01s CPU      0.01s WALL (       1 calls)
     potinit      :      0.08s CPU      0.09s WALL (       1 calls)

     Called by electrons:
     c_bands      :      0.36s CPU      0.38s WALL (      31 calls)
     sum_band     :      0.36s CPU      0.40s WALL (      31 calls)
     v_of_rho     :      2.15s CPU      2.38s WALL (      35 calls)
     newd         :      0.16s CPU      0.20s WALL (      35 calls)
     PAW_pot      :      0.03s CPU      0.03s WALL (      39 calls)
     mix_rho      :      0.25s CPU      0.42s WALL (      31 calls)

     Called by c_bands:
     init_us_2    :      0.03s CPU      0.04s WALL (      67 calls)
     cegterg      :      0.34s CPU      0.36s WALL (      31 calls)

     Called by sum_band:
     sum_band:bec :      0.00s CPU      0.00s WALL (      35 calls)
     addusdens    :      0.14s CPU      0.16s WALL (      31 calls)

     Called by *egterg:
     h_psi        :      0.32s CPU      0.32s WALL (      86 calls)
     s_psi        :      0.01s CPU      0.01s WALL (      86 calls)
     g_psi        :      0.00s CPU      0.00s WALL (      54 calls)
     cdiaghg      :      0.00s CPU      0.00s WALL (      80 calls)

     Called by h_psi:
     h_psi:pot    :      0.31s CPU      0.32s WALL (      86 calls)
     h_psi:calbec :      0.00s CPU      0.01s WALL (      86 calls)
     vloc_psi     :      0.30s CPU      0.31s WALL (      86 calls)
     add_vuspsi   :      0.01s CPU      0.01s WALL (      86 calls)

     General routines
     calbec       :      0.01s CPU      0.01s WALL (     141 calls)
     fft          :      0.98s CPU      1.12s WALL (     467 calls)
     fftw         :      0.32s CPU      0.33s WALL (     205 calls)
     davcio       :      0.00s CPU      0.00s WALL (       5 calls)

     Parallel routines
     fft_scatter  :      0.12s CPU      0.12s WALL (     672 calls)

     PWSCF        :     3.83s CPU         4.51s WALL


   This run was terminated on:  14:49:41  17Sep2018            

=------------------------------------------------------------------------------=
   JOB DONE.
=------------------------------------------------------------------------------=
