
     Program PWSCF v.6.2 starts on  7Oct2018 at 19:19:58 

     This program is part of the open-source Quantum ESPRESSO suite
     for quantum simulation of materials; please cite
         "P. Giannozzi et al., J. Phys.:Condens. Matter 21 395502 (2009);
         "P. Giannozzi et al., J. Phys.:Condens. Matter 29 465901 (2017);
          URL http://www.quantum-espresso.org", 
     in publications or presentations arising from this work. More details at
     http://www.quantum-espresso.org/quote

     Parallel version (MPI), running on    32 processors

     MPI processes distributed on     1 nodes
     R & G space division:  proc/nbgrp/npool/nimage =      32
     Waiting for input...
     Reading input from standard input

     Current dimensions of program PWSCF are:
     Max number of different atomic species (ntypx) = 10
     Max number of k-points (npk) =  40000
     Max angular momentum in pseudopotentials (lmaxx) =  3
               file C.pz-rrkjus.UPF: wavefunction(s)  2S renormalized

     Subspace diagonalization in iterative solution of the eigenvalue problem:
     a serial algorithm will be used


     Parallelization info
     --------------------
     sticks:   dense  smooth     PW     G-vecs:    dense   smooth      PW
     Min          30      15      5                  627      222      41
     Max          32      16      6                  629      224      44
     Sum         967     499    163                20107     7119    1363



     bravais-lattice index     =            0
     lattice parameter (alat)  =       4.7116  a.u.
     unit-cell volume          =      73.9577 (a.u.)^3
     number of atoms/cell      =            2
     number of atomic types    =            1
     number of electrons       =         8.00
     number of Kohn-Sham states=            4
     kinetic-energy cutoff     =      80.0000  Ry
     charge density cutoff     =     640.0000  Ry
     convergence threshold     =      1.0E-10
     mixing beta               =       0.7000
     number of iterations used =            8  plain     mixing
     Exchange-correlation      = SLA PZ NOGX NOGC ( 1  1  0  0 0 0)

     celldm(1)=   4.711576  celldm(2)=   0.000000  celldm(3)=   0.000000
     celldm(4)=   0.000000  celldm(5)=   0.000000  celldm(6)=   0.000000

     crystal axes: (cart. coord. in units of alat)
               a(1) = (   0.000000   0.707107   0.707107 )  
               a(2) = (   0.707107   0.000000   0.707107 )  
               a(3) = (   0.707107   0.707107   0.000000 )  

     reciprocal axes: (cart. coord. in units 2 pi/alat)
               b(1) = ( -0.707107  0.707107  0.707107 )  
               b(2) = (  0.707107 -0.707107  0.707107 )  
               b(3) = (  0.707107  0.707107 -0.707107 )  


     PseudoPot. # 1 for C  read from file:
     /n/holylfs/LABS/kozinsky_lab/Software/qe-6.2.1/pseudo/C.pz-rrkjus.UPF
     MD5 check sum: b6daa4d29350031528385b7e2af80775
     Pseudo is Ultrasoft, Zval =  4.0
     Generated by new atomic code, or converted to UPF format
     Using radial grid of 1425 points,  4 beta functions with: 
                l(1) =   0
                l(2) =   0
                l(3) =   1
                l(4) =   1
     Q(r) pseudized with 0 coefficients 


     atomic species   valence    mass     pseudopotential
        C              4.00    12.00000     C ( 1.00)

     48 Sym. Ops., with inversion, found (24 have fractional translation)



   Cartesian axes

     site n.     atom                  positions (alat units)
         1           C   tau(   1) = (   0.0000000   0.0000000   0.0000000  )
         2           C   tau(   2) = (   0.3535534   0.3535534   0.3535534  )

     number of k points=   752

     Number of k-points >= 100: set verbosity='high' to print them.

     Dense  grid:    20107 G-vectors     FFT dimensions: (  40,  40,  40)

     Smooth grid:     7119 G-vectors     FFT dimensions: (  27,  27,  27)

     Estimated max dynamical RAM per process >       2.62 MB

     Estimated total dynamical RAM >      83.75 MB

     Initial potential from superposition of free atoms

     starting charge    7.99992, renormalised to    8.00000
     Starting wfc are    8 randomized atomic wfcs

     total cpu time spent up to now is        0.9 secs

     Self-consistent Calculation

     iteration #  1     ecut=    80.00 Ry     beta= 0.70
     Davidson diagonalization with overlap
     ethr =  1.00E-02,  avg # of iterations =  2.9

     total cpu time spent up to now is        2.2 secs

     total energy              =     -22.84070737 Ry
     Harris-Foulkes estimate   =     -22.91120775 Ry
     estimated scf accuracy    <       0.13015325 Ry

     iteration #  2     ecut=    80.00 Ry     beta= 0.70
     Davidson diagonalization with overlap
     ethr =  1.63E-03,  avg # of iterations =  1.9

     total cpu time spent up to now is        3.2 secs

     total energy              =     -22.85465849 Ry
     Harris-Foulkes estimate   =     -22.85638952 Ry
     estimated scf accuracy    <       0.00436193 Ry

     iteration #  3     ecut=    80.00 Ry     beta= 0.70
     Davidson diagonalization with overlap
     ethr =  5.45E-05,  avg # of iterations =  3.1

     total cpu time spent up to now is        4.8 secs

     total energy              =     -22.85852853 Ry
     Harris-Foulkes estimate   =     -22.85877392 Ry
     estimated scf accuracy    <       0.00043512 Ry

     iteration #  4     ecut=    80.00 Ry     beta= 0.70
     Davidson diagonalization with overlap
     ethr =  5.44E-06,  avg # of iterations =  2.8

     total cpu time spent up to now is        6.2 secs

     total energy              =     -22.85861721 Ry
     Harris-Foulkes estimate   =     -22.85862961 Ry
     estimated scf accuracy    <       0.00002486 Ry

     iteration #  5     ecut=    80.00 Ry     beta= 0.70
     Davidson diagonalization with overlap
     ethr =  3.11E-07,  avg # of iterations =  2.4

     total cpu time spent up to now is        7.4 secs

     total energy              =     -22.85862191 Ry
     Harris-Foulkes estimate   =     -22.85862192 Ry
     estimated scf accuracy    <       0.00000003 Ry

     iteration #  6     ecut=    80.00 Ry     beta= 0.70
     Davidson diagonalization with overlap
     ethr =  3.19E-10,  avg # of iterations =  4.9

     total cpu time spent up to now is        9.5 secs

     total energy              =     -22.85862335 Ry
     Harris-Foulkes estimate   =     -22.85862253 Ry
     estimated scf accuracy    <       0.00000006 Ry

     iteration #  7     ecut=    80.00 Ry     beta= 0.70
     Davidson diagonalization with overlap
     ethr =  3.19E-10,  avg # of iterations =  2.9

     total cpu time spent up to now is       10.9 secs

     End of self-consistent calculation

     Number of k-points >= 100: set verbosity='high' to print the bands.

     highest occupied level (ev):    13.6818

!    total energy              =     -22.85862335 Ry
     Harris-Foulkes estimate   =     -22.85862335 Ry
     estimated scf accuracy    <          4.7E-11 Ry

     The total energy is the sum of the following terms:

     one-electron contribution =       8.25881298 Ry
     hartree contribution      =       1.88081575 Ry
     xc contribution           =      -7.12806942 Ry
     ewald contribution        =     -25.87018266 Ry

     convergence has been achieved in   7 iterations

     Forces acting on atoms (cartesian axes, Ry/au):

     atom    1 type  1   force =    -0.00000000   -0.00000000    0.00000000
     atom    2 type  1   force =     0.00000000    0.00000000   -0.00000000

     Total force =     0.000000     Total SCF correction =     0.000000


     Computing stress (Cartesian axis) and pressure

          total   stress  (Ry/bohr**3)                   (kbar)     P=    2.85
   0.00001940   0.00000000   0.00000000          2.85      0.00      0.00
   0.00000000   0.00001940   0.00000000          0.00      2.85      0.00
   0.00000000   0.00000000   0.00001940          0.00      0.00      2.85


     Writing output data file pwscf.save

     init_run     :      0.58s CPU      0.67s WALL (       1 calls)
     electrons    :      8.80s CPU     10.03s WALL (       1 calls)
     forces       :      0.08s CPU      0.09s WALL (       1 calls)
     stress       :      0.15s CPU      0.16s WALL (       1 calls)

     Called by init_run:
     wfcinit      :      0.54s CPU      0.61s WALL (       1 calls)
     potinit      :      0.01s CPU      0.02s WALL (       1 calls)

     Called by electrons:
     c_bands      :      7.85s CPU      8.89s WALL (       7 calls)
     sum_band     :      0.93s CPU      1.05s WALL (       7 calls)
     v_of_rho     :      0.00s CPU      0.01s WALL (       8 calls)
     newd         :      0.01s CPU      0.01s WALL (       8 calls)
     mix_rho      :      0.00s CPU      0.01s WALL (       7 calls)

     Called by c_bands:
     init_us_2    :      0.12s CPU      0.13s WALL (   12784 calls)
     cegterg      :      7.63s CPU      8.64s WALL (    5264 calls)

     Called by sum_band:
     sum_band:bec :      0.01s CPU      0.01s WALL (    5264 calls)
     addusdens    :      0.01s CPU      0.01s WALL (       7 calls)

     Called by *egterg:
     h_psi        :      5.96s CPU      6.75s WALL (   21715 calls)
     s_psi        :      0.10s CPU      0.12s WALL (   21715 calls)
     g_psi        :      0.02s CPU      0.03s WALL (   15699 calls)
     cdiaghg      :      0.88s CPU      0.99s WALL (   20963 calls)

     Called by h_psi:
     h_psi:pot    :      5.91s CPU      6.70s WALL (   21715 calls)
     h_psi:calbec :      0.43s CPU      0.49s WALL (   21715 calls)
     vloc_psi     :      5.28s CPU      5.99s WALL (   21715 calls)
     add_vuspsi   :      0.11s CPU      0.12s WALL (   21715 calls)

     General routines
     calbec       :      0.56s CPU      0.63s WALL (   30739 calls)
     fft          :      0.02s CPU      0.06s WALL (      73 calls)
     ffts         :      0.00s CPU      0.01s WALL (      15 calls)
     fftw         :      5.60s CPU      6.33s WALL (  173810 calls)
     interpolate  :      0.01s CPU      0.02s WALL (      15 calls)

     Parallel routines
     fft_scatt_xy :      0.26s CPU      0.30s WALL (  173898 calls)
     fft_scatt_yz :      3.11s CPU      3.56s WALL (  173898 calls)

     PWSCF        :    10.57s CPU        28.38s WALL


   This run was terminated on:  19:20:27   7Oct2018            

=------------------------------------------------------------------------------=
   JOB DONE.
=------------------------------------------------------------------------------=
