
     Program PWSCF v.6.1 (svn rev. 13369) starts on 18Sep2018 at 17:26:24 

     This program is part of the open-source Quantum ESPRESSO suite
     for quantum simulation of materials; please cite
         "P. Giannozzi et al., J. Phys.:Condens. Matter 21 395502 (2009);
          URL http://www.quantum-espresso.org", 
     in publications or presentations arising from this work. More details at
     http://www.quantum-espresso.org/quote

     Parallel version (MPI), running on    16 processors
     R & G space division:  proc/nbgrp/npool/nimage =      16
     Waiting for input...
     Reading input from standard input

     Current dimensions of program PWSCF are:
     Max number of different atomic species (ntypx) = 10
     Max number of k-points (npk) =  40000
     Max angular momentum in pseudopotentials (lmaxx) =  3

     Subspace diagonalization in iterative solution of the eigenvalue problem:
     a serial algorithm will be used


     Parallelization info
     --------------------
     sticks:   dense  smooth     PW     G-vecs:    dense   smooth      PW
     Min         135     135     38                 4713     4713     716
     Max         136     136     39                 4716     4716     718
     Sum        2161    2161    609                75421    75421   11459



     bravais-lattice index     =            0
     lattice parameter (alat)  =      15.0352  a.u.
     unit-cell volume          =    3398.8476 (a.u.)^3
     number of atoms/cell      =           31
     number of atomic types    =            1
     number of electrons       =        93.00
     number of Kohn-Sham states=           56
     kinetic-energy cutoff     =      30.0000  Ry
     charge density cutoff     =     120.0000  Ry
     convergence threshold     =      1.0E-07
     mixing beta               =       0.5000
     number of iterations used =            8  plain     mixing
     Exchange-correlation      =  SLA  PZ   NOGX NOGC ( 1  1  0  0 0 0)
     nstep                     =           50


     celldm(1)=  15.035247  celldm(2)=   0.000000  celldm(3)=   0.000000
     celldm(4)=   0.000000  celldm(5)=   0.000000  celldm(6)=   0.000000

     crystal axes: (cart. coord. in units of alat)
               a(1) = (   1.000000   0.000000   0.000000 )  
               a(2) = (   0.000000   1.000000   0.000000 )  
               a(3) = (   0.000000   0.000000   1.000000 )  

     reciprocal axes: (cart. coord. in units 2 pi/alat)
               b(1) = (  1.000000  0.000000  0.000000 )  
               b(2) = (  0.000000  1.000000  0.000000 )  
               b(3) = (  0.000000  0.000000  1.000000 )  


     PseudoPot. # 1 for Al read from file:
     /home/homesoftware/espresso-6.1/qe-6.1/pseudo/Al.pz-vbc.UPF
     MD5 check sum: 614279c88ff8d45c90147292d03ed420
     Pseudo is Norm-conserving, Zval =  3.0
     Generated by new atomic code, or converted to UPF format
     Using radial grid of  171 points,  2 beta functions with: 
                l(1) =   0
                l(2) =   1

     atomic species   valence    mass     pseudopotential
        Al             3.00    26.98154     Al( 1.00)

     No symmetry found



   Cartesian axes

     site n.     atom                  positions (alat units)
         1           Al  tau(   1) = (  -0.0000000  -0.0000000  -0.0000000  )
         2           Al  tau(   2) = (  -0.0000000   0.2501031   0.2501031  )
         3           Al  tau(   3) = (   0.2634045  -0.0000000   0.2365964  )
         4           Al  tau(   4) = (   0.2634045   0.2365964  -0.0000000  )
         5           Al  tau(   5) = (  -0.0000000  -0.0000000   0.4999992  )
         6           Al  tau(   6) = (  -0.0000000   0.2501031   0.7498971  )
         7           Al  tau(   7) = (   0.2634045  -0.0000000   0.7634038  )
         8           Al  tau(   8) = (   0.2498978   0.2501031   0.4999992  )
         9           Al  tau(   9) = (  -0.0000000   0.4999992  -0.0000000  )
        10           Al  tau(  10) = (  -0.0000000   0.7498971   0.2501031  )
        11           Al  tau(  11) = (   0.2498978   0.4999992   0.2501031  )
        12           Al  tau(  12) = (   0.2634045   0.7634038  -0.0000000  )
        13           Al  tau(  13) = (  -0.0000000   0.4999992   0.4999992  )
        14           Al  tau(  14) = (  -0.0000000   0.7498971   0.7498971  )
        15           Al  tau(  15) = (   0.2498978   0.4999992   0.7498971  )
        16           Al  tau(  16) = (   0.2498978   0.7498971   0.4999992  )
        17           Al  tau(  17) = (   0.4999992   0.2365964   0.2365964  )
        18           Al  tau(  18) = (   0.7365956  -0.0000000   0.2365964  )
        19           Al  tau(  19) = (   0.7365956   0.2365964  -0.0000000  )
        20           Al  tau(  20) = (   0.4999992  -0.0000000   0.4999992  )
        21           Al  tau(  21) = (   0.4999992   0.2365964   0.7634037  )
        22           Al  tau(  22) = (   0.7365956  -0.0000000   0.7634037  )
        23           Al  tau(  23) = (   0.7501023   0.2501031   0.4999992  )
        24           Al  tau(  24) = (   0.4999992   0.4999992  -0.0000000  )
        25           Al  tau(  25) = (   0.4999992   0.7634037   0.2365964  )
        26           Al  tau(  26) = (   0.7501023   0.4999992   0.2501031  )
        27           Al  tau(  27) = (   0.7365956   0.7634037  -0.0000000  )
        28           Al  tau(  28) = (   0.4999992   0.4999992   0.4999992  )
        29           Al  tau(  29) = (   0.4999992   0.7634037   0.7634037  )
        30           Al  tau(  30) = (   0.7501023   0.4999992   0.7498971  )
        31           Al  tau(  31) = (   0.7501023   0.7498971   0.4999992  )

     number of k points=    36  Methfessel-Paxton smearing, width (Ry)=  0.0200
                       cart. coord. in units 2pi/alat
        k(    1) = (   0.0000000   0.0000000   0.0000000), wk =   0.0312500
        k(    2) = (   0.0000000   0.0000000   0.2500000), wk =   0.0625000
        k(    3) = (   0.0000000   0.0000000  -0.5000000), wk =   0.0312500
        k(    4) = (   0.0000000   0.2500000   0.0000000), wk =   0.0625000
        k(    5) = (   0.0000000   0.2500000   0.2500000), wk =   0.0625000
        k(    6) = (   0.0000000   0.2500000  -0.5000000), wk =   0.0625000
        k(    7) = (   0.0000000   0.2500000  -0.2500000), wk =   0.0625000
        k(    8) = (   0.0000000  -0.5000000   0.0000000), wk =   0.0312500
        k(    9) = (   0.0000000  -0.5000000   0.2500000), wk =   0.0625000
        k(   10) = (   0.0000000  -0.5000000  -0.5000000), wk =   0.0312500
        k(   11) = (   0.2500000   0.0000000   0.0000000), wk =   0.0625000
        k(   12) = (   0.2500000   0.0000000   0.2500000), wk =   0.0625000
        k(   13) = (   0.2500000   0.0000000  -0.5000000), wk =   0.0625000
        k(   14) = (   0.2500000   0.0000000  -0.2500000), wk =   0.0625000
        k(   15) = (   0.2500000   0.2500000   0.0000000), wk =   0.0625000
        k(   16) = (   0.2500000   0.2500000   0.2500000), wk =   0.0625000
        k(   17) = (   0.2500000   0.2500000  -0.5000000), wk =   0.0625000
        k(   18) = (   0.2500000   0.2500000  -0.2500000), wk =   0.0625000
        k(   19) = (   0.2500000  -0.5000000   0.0000000), wk =   0.0625000
        k(   20) = (   0.2500000  -0.5000000   0.2500000), wk =   0.0625000
        k(   21) = (   0.2500000  -0.5000000  -0.5000000), wk =   0.0625000
        k(   22) = (   0.2500000  -0.5000000  -0.2500000), wk =   0.0625000
        k(   23) = (   0.2500000  -0.2500000   0.0000000), wk =   0.0625000
        k(   24) = (   0.2500000  -0.2500000   0.2500000), wk =   0.0625000
        k(   25) = (   0.2500000  -0.2500000  -0.5000000), wk =   0.0625000
        k(   26) = (   0.2500000  -0.2500000  -0.2500000), wk =   0.0625000
        k(   27) = (  -0.5000000   0.0000000   0.0000000), wk =   0.0312500
        k(   28) = (  -0.5000000   0.0000000   0.2500000), wk =   0.0625000
        k(   29) = (  -0.5000000   0.0000000  -0.5000000), wk =   0.0312500
        k(   30) = (  -0.5000000   0.2500000   0.0000000), wk =   0.0625000
        k(   31) = (  -0.5000000   0.2500000   0.2500000), wk =   0.0625000
        k(   32) = (  -0.5000000   0.2500000  -0.5000000), wk =   0.0625000
        k(   33) = (  -0.5000000   0.2500000  -0.2500000), wk =   0.0625000
        k(   34) = (  -0.5000000  -0.5000000   0.0000000), wk =   0.0312500
        k(   35) = (  -0.5000000  -0.5000000   0.2500000), wk =   0.0625000
        k(   36) = (  -0.5000000  -0.5000000  -0.5000000), wk =   0.0312500

     Dense  grid:    75421 G-vectors     FFT dimensions: (  54,  54,  54)

     Estimated max dynamical RAM per process >       7.96MB

     Estimated total allocated dynamical RAM >     127.33MB

     Initial potential from superposition of free atoms

     starting charge   92.93624, renormalised to   93.00000
     Starting wfc are  124 randomized atomic wfcs

     total cpu time spent up to now is       56.2 secs

     per-process dynamical memory:    37.8 Mb

     Self-consistent Calculation

     iteration #  1     ecut=    30.00 Ry     beta=0.50
     Davidson diagonalization with overlap
     ethr =  1.00E-02,  avg # of iterations =  3.0

     Threshold (ethr) on eigenvalues was too large:
     Diagonalizing with lowered threshold

     Davidson diagonalization with overlap
     ethr =  2.14E-04,  avg # of iterations =  3.1

     total cpu time spent up to now is      152.3 secs

     total energy              =    -129.81637204 Ry
     Harris-Foulkes estimate   =    -129.84756146 Ry
     estimated scf accuracy    <       0.20226331 Ry

     iteration #  2     ecut=    30.00 Ry     beta=0.50
     Davidson diagonalization with overlap
     ethr =  2.17E-04,  avg # of iterations =  1.2

     total cpu time spent up to now is      183.3 secs

     total energy              =    -129.81503480 Ry
     Harris-Foulkes estimate   =    -129.82473420 Ry
     estimated scf accuracy    <       0.04952849 Ry

     iteration #  3     ecut=    30.00 Ry     beta=0.50
     Davidson diagonalization with overlap
     ethr =  5.33E-05,  avg # of iterations =  3.7

     total cpu time spent up to now is      257.1 secs

     total energy              =    -129.80684208 Ry
     Harris-Foulkes estimate   =    -129.83060387 Ry
     estimated scf accuracy    <       0.07681692 Ry

     iteration #  4     ecut=    30.00 Ry     beta=0.50
     Davidson diagonalization with overlap
     ethr =  5.33E-05,  avg # of iterations =  2.6

     total cpu time spent up to now is      308.3 secs

     total energy              =    -129.81926650 Ry
     Harris-Foulkes estimate   =    -129.82210611 Ry
     estimated scf accuracy    <       0.01104814 Ry

     iteration #  5     ecut=    30.00 Ry     beta=0.50
     Davidson diagonalization with overlap
     ethr =  1.19E-05,  avg # of iterations =  2.3

     total cpu time spent up to now is      355.2 secs

     total energy              =    -129.82060098 Ry
     Harris-Foulkes estimate   =    -129.82072584 Ry
     estimated scf accuracy    <       0.00031910 Ry

     iteration #  6     ecut=    30.00 Ry     beta=0.50
     Davidson diagonalization with overlap
     ethr =  3.43E-07,  avg # of iterations =  4.9

     total cpu time spent up to now is      448.0 secs

     total energy              =    -129.82069212 Ry
     Harris-Foulkes estimate   =    -129.82069873 Ry
     estimated scf accuracy    <       0.00002782 Ry

     iteration #  7     ecut=    30.00 Ry     beta=0.50
     Davidson diagonalization with overlap
     ethr =  2.99E-08,  avg # of iterations =  2.5

     total cpu time spent up to now is      500.0 secs

     total energy              =    -129.82069454 Ry
     Harris-Foulkes estimate   =    -129.82069545 Ry
     estimated scf accuracy    <       0.00000288 Ry

     iteration #  8     ecut=    30.00 Ry     beta=0.50
     Davidson diagonalization with overlap
     ethr =  3.10E-09,  avg # of iterations =  3.2

     total cpu time spent up to now is      561.3 secs

     total energy              =    -129.82069515 Ry
     Harris-Foulkes estimate   =    -129.82069548 Ry
     estimated scf accuracy    <       0.00000165 Ry

     iteration #  9     ecut=    30.00 Ry     beta=0.50
     Davidson diagonalization with overlap
     ethr =  1.78E-09,  avg # of iterations =  2.0

     total cpu time spent up to now is      600.8 secs

     total energy              =    -129.82069522 Ry
     Harris-Foulkes estimate   =    -129.82069538 Ry
     estimated scf accuracy    <       0.00000070 Ry

     iteration # 10     ecut=    30.00 Ry     beta=0.50
     Davidson diagonalization with overlap
     ethr =  7.58E-10,  avg # of iterations =  2.0

     total cpu time spent up to now is      641.5 secs

     End of self-consistent calculation

          k = 0.0000 0.0000 0.0000 (  9435 PWs)   bands (ev):

    -3.3862  -1.1103  -1.1103  -1.1103  -1.0378  -1.0378  -0.9607   1.1147
     1.1147   1.1147   1.1219   1.1219   1.1219   1.1756   1.1756   1.3330
     1.3330   1.3330   1.8815   3.2228   3.4061   3.4061   3.4061   3.4975
     3.4975   3.4975   4.0253   5.1221   5.1221   5.1221   6.3686   6.3686
     6.5589   7.0488   7.0488   7.0488   7.1511   7.1511   7.1511   7.2087
     7.2088   7.2088   7.2587   7.2587   7.2587   8.0093   8.0093   8.1996
     8.1996   8.1996   8.4339   8.7211   9.1833   9.1833   9.1833   9.2207

          k = 0.0000 0.0000 0.2500 (  9450 PWs)   bands (ev):

    -3.2402  -2.0698  -0.9663  -0.9663  -0.8961  -0.8627   0.1758   0.1758
     0.1878   0.2626   0.3795   1.2622   1.3628   1.3628   1.5299   2.3808
     2.4124   2.4124   2.4775   2.5109   2.5109   2.5168   2.9162   3.6595
     4.6014   4.6624   4.6624   4.9626   5.2542   5.2542   5.6745   5.6745
     5.7599   5.8641   6.2756   6.2756   6.5102   6.6354   7.1663   7.2787
     7.3968   7.3968   7.5546   7.5854   7.7540   7.8966   7.8967   8.1605
     8.2058   8.2515   8.2945   8.2945   8.3450   8.4568   8.4568   8.8702

          k = 0.0000 0.0000-0.5000 (  9370 PWs)   bands (ev):

    -2.8447  -2.7525  -0.6406  -0.5474  -0.5387  -0.5387  -0.5330  -0.5330
    -0.3683  -0.1295   1.6112   1.6493   1.7192   1.7292   1.7544   1.7544
     1.7974   1.8156   1.8156   2.4115   3.8891   3.8891   3.9739   4.0030
     4.0030   4.0884   4.1510   4.2637   5.5729   5.5729   5.5746   5.5746
     5.9591   6.1742   6.1742   6.1999   6.3060   6.3202   6.3202   6.3906
     6.9205   6.9340   6.9359   7.3465   7.5240   7.5819   7.6382   7.6718
     7.6718   7.7804   7.9636   7.9636   9.0563   9.1758   9.1759   9.1892

          k = 0.0000 0.2500 0.0000 (  9450 PWs)   bands (ev):

    -3.2402  -2.0698  -0.9663  -0.9663  -0.8961  -0.8627   0.1758   0.1758
     0.1878   0.2626   0.3795   1.2622   1.3628   1.3628   1.5299   2.3808
     2.4124   2.4124   2.4775   2.5109   2.5109   2.5167   2.9162   3.6595
     4.6014   4.6624   4.6624   4.9626   5.2542   5.2542   5.6745   5.6745
     5.7599   5.8641   6.2756   6.2756   6.5102   6.6354   7.1663   7.2787
     7.3968   7.3968   7.5546   7.5854   7.7540   7.8966   7.8967   8.1605
     8.2058   8.2515   8.2945   8.2945   8.3450   8.4568   8.4568   8.8559

          k = 0.0000 0.2500 0.2500 (  9423 PWs)   bands (ev):

    -3.0940  -1.9438  -1.9079  -0.8643  -0.8226  -0.6240   0.2674   0.2702
     0.2893   0.3726   0.4125   0.6384   1.4509   1.4517   1.5033   1.7087
     2.5151   2.5977   2.6310   2.8634   3.5349   3.5765   3.6678   3.7300
     3.7839   3.8616   4.1701   4.7847   4.8564   5.3324   5.6685   5.8077
     5.8617   5.9504   6.0230   6.1507   6.3840   6.4415   6.7024   6.7572
     6.8531   6.9036   6.9756   7.1245   7.2625   7.4508   7.8250   8.1300
     8.2591   8.3433   8.4573   8.5200   8.8972   8.9594   9.0632   9.0925

          k = 0.0000 0.2500-0.5000 (  9398 PWs)   bands (ev):

    -2.6986  -2.6087  -1.5357  -1.4562  -0.3964  -0.3904  -0.3619  -0.2086
     0.7195   0.7378   0.7459   0.7527   0.8122   1.0932   1.8917   2.0021
     2.9230   2.9820   2.9826   2.9970   3.1047   3.3906   4.0253   4.0418
     4.0866   4.1372   4.2386   4.3775   5.1225   5.1279   5.1947   5.2534
     5.4084   5.4869   5.7018   5.8220   6.2399   6.2487   6.2669   6.6013
     6.7447   6.8791   7.0443   7.1040   7.3017   7.4703   7.4997   7.5744
     8.2222   8.2994   8.4834   8.6434   8.7576   8.8315   8.8562   8.9698

          k = 0.0000 0.2500-0.2500 (  9423 PWs)   bands (ev):

    -3.0940  -1.9438  -1.9079  -0.8643  -0.8226  -0.6240   0.2674   0.2702
     0.2893   0.3726   0.4125   0.6384   1.4509   1.4517   1.5033   1.7087
     2.5151   2.5977   2.6310   2.8634   3.5349   3.5765   3.6678   3.7300
     3.7839   3.8616   4.1701   4.7847   4.8564   5.3324   5.6685   5.8077
     5.8617   5.9504   6.0230   6.1507   6.3840   6.4415   6.7024   6.7572
     6.8531   6.9036   6.9756   7.1245   7.2625   7.4508   7.8250   8.1300
     8.2591   8.3433   8.4573   8.5200   8.8972   8.9594   9.0632   9.0925

          k = 0.0000-0.5000 0.0000 (  9370 PWs)   bands (ev):

    -2.8447  -2.7525  -0.6405  -0.5474  -0.5387  -0.5387  -0.5330  -0.5330
    -0.3683  -0.1295   1.6112   1.6492   1.7192   1.7292   1.7545   1.7545
     1.7974   1.8155   1.8155   2.4115   3.8891   3.8891   3.9738   4.0030
     4.0030   4.0884   4.1511   4.2637   5.5729   5.5729   5.5746   5.5746
     5.9591   6.1742   6.1742   6.1999   6.3060   6.3202   6.3202   6.3906
     6.9205   6.9340   6.9359   7.3465   7.5241   7.5819   7.6382   7.6718
     7.6719   7.7804   7.9636   7.9636   9.0564   9.1758   9.1762   9.1892

          k = 0.0000-0.5000 0.2500 (  9398 PWs)   bands (ev):

    -2.6985  -2.6087  -1.5356  -1.4562  -0.3964  -0.3904  -0.3619  -0.2086
     0.7195   0.7378   0.7459   0.7527   0.8122   1.0932   1.8917   2.0021
     2.9230   2.9820   2.9826   2.9970   3.1047   3.3906   4.0253   4.0418
     4.0866   4.1372   4.2386   4.3775   5.1225   5.1279   5.1947   5.2534
     5.4084   5.4869   5.7018   5.8220   6.2399   6.2486   6.2669   6.6013
     6.7447   6.8791   7.0443   7.1040   7.3017   7.4703   7.4997   7.5744
     8.2222   8.2994   8.4834   8.6434   8.7575   8.8315   8.8562   8.9698

          k = 0.0000-0.5000-0.5000 (  9476 PWs)   bands (ev):

    -2.2846  -2.2353  -2.2353  -2.1085  -0.0203  -0.0086   0.0561   0.0561
     0.0775   0.0894   0.0894   0.4097   2.2071   2.2794   2.3328   2.3418
     2.3418   2.3602   2.3602   2.6531   4.2170   4.3821   4.3831   4.3831
     4.3868   4.4073   4.5690   4.5690   4.5698   4.5698   4.6237   4.7044
     4.7317   4.7656   4.7656   5.4630   6.0650   6.1225   6.1225   6.3680
     6.4526   6.5583   6.7957   6.7957   7.5820   7.5820   7.6695   8.0067
     8.5384   8.8789   8.8798   8.9368   8.9368   8.9941   8.9941   9.2093

          k = 0.2500 0.0000 0.0000 (  9450 PWs)   bands (ev):

    -3.2402  -2.0698  -0.9663  -0.9663  -0.8961  -0.8627   0.1758   0.1758
     0.1878   0.2626   0.3794   1.2622   1.3628   1.3628   1.5299   2.3808
     2.4123   2.4124   2.4775   2.5109   2.5109   2.5168   2.9162   3.6595
     4.6014   4.6624   4.6624   4.9626   5.2542   5.2542   5.6745   5.6745
     5.7599   5.8641   6.2755   6.2756   6.5102   6.6354   7.1663   7.2787
     7.3968   7.3968   7.5546   7.5854   7.7540   7.8966   7.8967   8.1605
     8.2058   8.2515   8.2945   8.2945   8.3450   8.4568   8.4568   8.8559

          k = 0.2500 0.0000 0.2500 (  9423 PWs)   bands (ev):

    -3.0940  -1.9438  -1.9079  -0.8643  -0.8226  -0.6240   0.2674   0.2702
     0.2893   0.3726   0.4125   0.6385   1.4509   1.4517   1.5033   1.7087
     2.5151   2.5977   2.6310   2.8634   3.5349   3.5765   3.6678   3.7300
     3.7839   3.8616   4.1701   4.7847   4.8564   5.3324   5.6685   5.8077
     5.8617   5.9504   6.0230   6.1507   6.3840   6.4415   6.7024   6.7572
     6.8531   6.9036   6.9755   7.1245   7.2625   7.4508   7.8250   8.1300
     8.2591   8.3433   8.4573   8.5200   8.8972   8.9594   9.0632   9.0925

          k = 0.2500 0.0000-0.5000 (  9398 PWs)   bands (ev):

    -2.6986  -2.6087  -1.5357  -1.4562  -0.3964  -0.3904  -0.3619  -0.2086
     0.7195   0.7378   0.7459   0.7527   0.8122   1.0932   1.8917   2.0021
     2.9230   2.9820   2.9826   2.9970   3.1047   3.3906   4.0253   4.0418
     4.0866   4.1372   4.2386   4.3775   5.1225   5.1279   5.1947   5.2534
     5.4084   5.4869   5.7018   5.8220   6.2399   6.2487   6.2669   6.6013
     6.7447   6.8791   7.0443   7.1040   7.3017   7.4703   7.4997   7.5745
     8.2222   8.2994   8.4834   8.6434   8.7576   8.8315   8.8562   8.9698

          k = 0.2500 0.0000-0.2500 (  9423 PWs)   bands (ev):

    -3.0940  -1.9438  -1.9079  -0.8643  -0.8226  -0.6240   0.2674   0.2702
     0.2893   0.3726   0.4125   0.6385   1.4509   1.4517   1.5033   1.7087
     2.5151   2.5977   2.6310   2.8634   3.5349   3.5765   3.6678   3.7300
     3.7839   3.8616   4.1701   4.7847   4.8564   5.3324   5.6685   5.8077
     5.8617   5.9504   6.0230   6.1507   6.3840   6.4415   6.7024   6.7572
     6.8531   6.9036   6.9755   7.1245   7.2625   7.4508   7.8250   8.1300
     8.2591   8.3433   8.4573   8.5200   8.8972   8.9594   9.0632   9.0925

          k = 0.2500 0.2500 0.0000 (  9423 PWs)   bands (ev):

    -3.0940  -1.9438  -1.9079  -0.8643  -0.8226  -0.6240   0.2674   0.2702
     0.2893   0.3726   0.4125   0.6385   1.4509   1.4517   1.5033   1.7087
     2.5151   2.5977   2.6310   2.8634   3.5349   3.5765   3.6678   3.7300
     3.7839   3.8616   4.1701   4.7847   4.8564   5.3324   5.6685   5.8077
     5.8617   5.9504   6.0230   6.1507   6.3840   6.4415   6.7024   6.7572
     6.8531   6.9036   6.9756   7.1245   7.2625   7.4508   7.8250   8.1300
     8.2591   8.3433   8.4573   8.5200   8.8972   8.9594   9.0632   9.0925

          k = 0.2500 0.2500 0.2500 (  9444 PWs)   bands (ev):

    -2.9483  -1.7991  -1.7991  -1.7531  -0.6419  -0.6419  -0.5866   0.4136
     0.5008   0.5008   0.6430   1.5700   1.5700   1.5886   1.5886   1.7540
     1.9336   2.7534   2.7534   2.8109   3.7770   3.7770   3.8086   3.9249
     3.9249   4.0803   4.7898   4.7899   4.8524   4.8524   4.9833   5.0263
     5.0829   5.0829   5.2877   6.0228   6.0228   6.1958   7.0321   7.0321
     7.0648   7.0861   7.1546   7.2345   7.2345   8.1118   8.1118   8.1502
     8.1595   8.2769   8.2769   8.4648   8.4649   8.5511   9.4058   9.4058

          k = 0.2500 0.2500-0.5000 (  9418 PWs)   bands (ev):

    -2.5526  -2.4652  -1.4523  -1.4074  -1.3184  -1.1958  -0.2322  -0.1644
     0.8389   0.8765   0.9754   1.0985   1.8974   2.0050   2.0299   2.0504
     2.0922   2.4032   3.1071   3.1797   3.2245   3.2611   4.0646   4.1283
     4.2254   4.2260   4.2715   4.3572   4.3658   4.6891   5.1486   5.1538
     5.1985   5.3748   5.4820   5.4872   5.5777   5.7746   6.4449   6.4601
     6.5091   6.6779   7.3961   7.5219   7.5468   7.6744   8.3825   8.3998
     8.4036   8.4193   8.5974   8.7298   8.9113   8.9571   9.0672   9.2385

          k = 0.2500 0.2500-0.2500 (  9444 PWs)   bands (ev):

    -2.9483  -1.7991  -1.7991  -1.7531  -0.6419  -0.6419  -0.5866   0.4136
     0.5008   0.5008   0.6430   1.5700   1.5700   1.5886   1.5886   1.7540
     1.9336   2.7534   2.7534   2.8109   3.7770   3.7770   3.8086   3.9249
     3.9249   4.0803   4.7898   4.7899   4.8524   4.8524   4.9833   5.0263
     5.0829   5.0829   5.2877   6.0228   6.0228   6.1958   7.0321   7.0321
     7.0648   7.0861   7.1546   7.2345   7.2345   8.1118   8.1118   8.1502
     8.1595   8.2769   8.2769   8.4648   8.4649   8.5511   9.4058   9.4058

          k = 0.2500-0.5000 0.0000 (  9398 PWs)   bands (ev):

    -2.6985  -2.6087  -1.5356  -1.4562  -0.3964  -0.3904  -0.3619  -0.2086
     0.7195   0.7378   0.7459   0.7527   0.8122   1.0932   1.8917   2.0021
     2.9230   2.9820   2.9826   2.9970   3.1047   3.3906   4.0253   4.0418
     4.0866   4.1372   4.2386   4.3775   5.1225   5.1279   5.1947   5.2534
     5.4084   5.4869   5.7018   5.8220   6.2399   6.2486   6.2669   6.6013
     6.7447   6.8791   7.0443   7.1040   7.3017   7.4703   7.4997   7.5745
     8.2222   8.2994   8.4834   8.6434   8.7575   8.8315   8.8562   8.9698

          k = 0.2500-0.5000 0.2500 (  9418 PWs)   bands (ev):

    -2.5526  -2.4653  -1.4523  -1.4074  -1.3184  -1.1958  -0.2321  -0.1644
     0.8390   0.8765   0.9754   1.0985   1.8974   2.0050   2.0299   2.0504
     2.0922   2.4032   3.1071   3.1797   3.2245   3.2611   4.0646   4.1283
     4.2254   4.2260   4.2715   4.3572   4.3658   4.6891   5.1485   5.1539
     5.1985   5.3748   5.4820   5.4872   5.5777   5.7746   6.4449   6.4601
     6.5091   6.6779   7.3961   7.5219   7.5468   7.6743   8.3825   8.3998
     8.4036   8.4193   8.5974   8.7298   8.9113   8.9572   9.0672   9.2385

          k = 0.2500-0.5000-0.5000 (  9476 PWs)   bands (ev):

    -2.1411  -2.0903  -2.0903  -1.9746  -0.9670  -0.9284  -0.9284  -0.7905
     1.3079   1.3414   1.3414   1.4261   2.3466   2.4055   2.4714   2.4790
     2.4791   2.4960   2.4960   2.7546   3.4411   3.5794   3.5826   3.5826
     3.5903   3.6341   3.6341   3.8295   4.5925   4.6561   4.6562   5.0043
     5.6575   5.7768   5.7833   5.7833   5.7976   5.8109   5.8109   6.2612
     6.7025   6.9240   6.9701   6.9701   7.7768   8.0274   8.0274   8.0532
     8.7925   8.9285   8.9285   8.9346   8.9428   8.9800   8.9800   9.2446

          k = 0.2500-0.5000-0.2500 (  9418 PWs)   bands (ev):

    -2.5526  -2.4653  -1.4523  -1.4074  -1.3184  -1.1958  -0.2321  -0.1644
     0.8390   0.8765   0.9754   1.0985   1.8974   2.0050   2.0299   2.0504
     2.0922   2.4032   3.1071   3.1797   3.2245   3.2611   4.0646   4.1283
     4.2254   4.2260   4.2715   4.3572   4.3658   4.6891   5.1485   5.1539
     5.1985   5.3748   5.4820   5.4872   5.5777   5.7746   6.4449   6.4601
     6.5091   6.6779   7.3961   7.5219   7.5468   7.6743   8.3825   8.3998
     8.4036   8.4193   8.5974   8.7298   8.9113   8.9572   9.0672   9.2385

          k = 0.2500-0.2500 0.0000 (  9423 PWs)   bands (ev):

    -3.0940  -1.9438  -1.9079  -0.8643  -0.8226  -0.6240   0.2674   0.2702
     0.2893   0.3726   0.4125   0.6384   1.4509   1.4517   1.5033   1.7087
     2.5151   2.5977   2.6310   2.8634   3.5349   3.5765   3.6678   3.7300
     3.7839   3.8616   4.1701   4.7847   4.8564   5.3324   5.6685   5.8077
     5.8617   5.9504   6.0230   6.1507   6.3840   6.4415   6.7024   6.7572
     6.8531   6.9036   6.9756   7.1245   7.2625   7.4508   7.8250   8.1300
     8.2591   8.3433   8.4573   8.5200   8.8972   8.9594   9.0632   9.0925

          k = 0.2500-0.2500 0.2500 (  9444 PWs)   bands (ev):

    -2.9483  -1.7991  -1.7991  -1.7531  -0.6419  -0.6419  -0.5866   0.4136
     0.5008   0.5008   0.6430   1.5700   1.5700   1.5886   1.5886   1.7540
     1.9336   2.7534   2.7534   2.8109   3.7770   3.7770   3.8086   3.9249
     3.9249   4.0803   4.7898   4.7899   4.8524   4.8524   4.9833   5.0263
     5.0829   5.0829   5.2877   6.0228   6.0228   6.1958   7.0321   7.0321
     7.0648   7.0861   7.1546   7.2345   7.2345   8.1118   8.1118   8.1502
     8.1595   8.2769   8.2769   8.4648   8.4649   8.5511   9.4058   9.4058

          k = 0.2500-0.2500-0.5000 (  9418 PWs)   bands (ev):

    -2.5526  -2.4652  -1.4523  -1.4074  -1.3184  -1.1958  -0.2322  -0.1644
     0.8389   0.8765   0.9754   1.0985   1.8974   2.0050   2.0299   2.0504
     2.0922   2.4032   3.1071   3.1797   3.2245   3.2611   4.0646   4.1283
     4.2254   4.2260   4.2715   4.3572   4.3658   4.6891   5.1486   5.1538
     5.1985   5.3748   5.4820   5.4872   5.5777   5.7746   6.4449   6.4601
     6.5091   6.6779   7.3961   7.5219   7.5468   7.6744   8.3825   8.3998
     8.4036   8.4193   8.5974   8.7298   8.9113   8.9571   9.0672   9.2385

          k = 0.2500-0.2500-0.2500 (  9444 PWs)   bands (ev):

    -2.9483  -1.7991  -1.7991  -1.7531  -0.6419  -0.6419  -0.5866   0.4136
     0.5008   0.5008   0.6430   1.5700   1.5700   1.5886   1.5886   1.7540
     1.9336   2.7534   2.7534   2.8109   3.7770   3.7770   3.8086   3.9249
     3.9249   4.0803   4.7898   4.7899   4.8524   4.8524   4.9833   5.0263
     5.0829   5.0829   5.2877   6.0228   6.0228   6.1958   7.0321   7.0321
     7.0648   7.0861   7.1546   7.2345   7.2345   8.1118   8.1118   8.1502
     8.1595   8.2769   8.2769   8.4648   8.4649   8.5511   9.4058   9.4058

          k =-0.5000 0.0000 0.0000 (  9370 PWs)   bands (ev):

    -2.8447  -2.7525  -0.6405  -0.5474  -0.5387  -0.5387  -0.5330  -0.5330
    -0.3683  -0.1295   1.6112   1.6492   1.7192   1.7292   1.7545   1.7545
     1.7975   1.8155   1.8155   2.4115   3.8891   3.8891   3.9739   4.0030
     4.0030   4.0884   4.1510   4.2637   5.5730   5.5730   5.5746   5.5746
     5.9591   6.1742   6.1742   6.1999   6.3060   6.3202   6.3202   6.3906
     6.9205   6.9340   6.9359   7.3465   7.5241   7.5819   7.6382   7.6719
     7.6719   7.7804   7.9636   7.9636   9.0565   9.1758   9.1765   9.1891

          k =-0.5000 0.0000 0.2500 (  9398 PWs)   bands (ev):

    -2.6985  -2.6087  -1.5356  -1.4563  -0.3964  -0.3904  -0.3619  -0.2086
     0.7195   0.7378   0.7458   0.7527   0.8123   1.0932   1.8917   2.0021
     2.9230   2.9820   2.9826   2.9970   3.1047   3.3906   4.0253   4.0418
     4.0866   4.1372   4.2386   4.3775   5.1225   5.1279   5.1947   5.2534
     5.4084   5.4869   5.7018   5.8220   6.2399   6.2486   6.2670   6.6013
     6.7447   6.8790   7.0443   7.1040   7.3017   7.4703   7.4997   7.5744
     8.2222   8.2994   8.4834   8.6434   8.7575   8.8315   8.8562   8.9698

          k =-0.5000 0.0000-0.5000 (  9476 PWs)   bands (ev):

    -2.2846  -2.2353  -2.2353  -2.1085  -0.0203  -0.0086   0.0561   0.0561
     0.0775   0.0894   0.0894   0.4097   2.2071   2.2794   2.3328   2.3418
     2.3418   2.3602   2.3602   2.6531   4.2170   4.3821   4.3831   4.3831
     4.3867   4.4073   4.5690   4.5690   4.5698   4.5698   4.6237   4.7044
     4.7317   4.7656   4.7656   5.4630   6.0650   6.1224   6.1225   6.3680
     6.4526   6.5584   6.7957   6.7957   7.5820   7.5820   7.6695   8.0067
     8.5384   8.8789   8.8798   8.9368   8.9368   8.9941   8.9941   9.2093

          k =-0.5000 0.2500 0.0000 (  9398 PWs)   bands (ev):

    -2.6985  -2.6087  -1.5356  -1.4563  -0.3964  -0.3904  -0.3618  -0.2086
     0.7195   0.7378   0.7458   0.7527   0.8123   1.0932   1.8917   2.0021
     2.9230   2.9820   2.9826   2.9970   3.1047   3.3906   4.0253   4.0418
     4.0866   4.1372   4.2386   4.3775   5.1225   5.1279   5.1947   5.2534
     5.4084   5.4869   5.7018   5.8220   6.2399   6.2486   6.2670   6.6013
     6.7447   6.8790   7.0443   7.1040   7.3017   7.4703   7.4997   7.5745
     8.2222   8.2994   8.4834   8.6434   8.7575   8.8315   8.8562   8.9698

          k =-0.5000 0.2500 0.2500 (  9418 PWs)   bands (ev):

    -2.5526  -2.4653  -1.4523  -1.4074  -1.3184  -1.1958  -0.2321  -0.1644
     0.8390   0.8765   0.9754   1.0985   1.8974   2.0050   2.0299   2.0504
     2.0922   2.4031   3.1071   3.1796   3.2245   3.2611   4.0646   4.1283
     4.2254   4.2260   4.2715   4.3572   4.3658   4.6891   5.1485   5.1539
     5.1985   5.3748   5.4820   5.4872   5.5777   5.7746   6.4449   6.4601
     6.5091   6.6779   7.3961   7.5219   7.5468   7.6743   8.3825   8.3998
     8.4036   8.4193   8.5974   8.7298   8.9113   8.9572   9.0672   9.2385

          k =-0.5000 0.2500-0.5000 (  9476 PWs)   bands (ev):

    -2.1411  -2.0903  -2.0903  -1.9746  -0.9669  -0.9284  -0.9284  -0.7905
     1.3079   1.3414   1.3414   1.4261   2.3466   2.4055   2.4714   2.4790
     2.4790   2.4960   2.4960   2.7546   3.4411   3.5794   3.5826   3.5826
     3.5903   3.6341   3.6342   3.8295   4.5926   4.6561   4.6562   5.0043
     5.6575   5.7767   5.7833   5.7833   5.7976   5.8109   5.8109   6.2612
     6.7025   6.9239   6.9701   6.9701   7.7767   8.0274   8.0274   8.0532
     8.7925   8.9285   8.9285   8.9346   8.9428   8.9800   8.9800   9.2446

          k =-0.5000 0.2500-0.2500 (  9418 PWs)   bands (ev):

    -2.5526  -2.4653  -1.4523  -1.4074  -1.3184  -1.1958  -0.2321  -0.1644
     0.8390   0.8765   0.9754   1.0985   1.8974   2.0050   2.0299   2.0504
     2.0922   2.4031   3.1071   3.1796   3.2245   3.2611   4.0646   4.1283
     4.2254   4.2260   4.2715   4.3572   4.3658   4.6891   5.1485   5.1539
     5.1985   5.3748   5.4820   5.4872   5.5777   5.7746   6.4449   6.4601
     6.5091   6.6779   7.3961   7.5219   7.5468   7.6743   8.3825   8.3998
     8.4036   8.4193   8.5974   8.7298   8.9113   8.9572   9.0672   9.2385

          k =-0.5000-0.5000 0.0000 (  9476 PWs)   bands (ev):

    -2.2846  -2.2353  -2.2353  -2.1085  -0.0204  -0.0086   0.0561   0.0561
     0.0775   0.0894   0.0894   0.4097   2.2071   2.2794   2.3328   2.3418
     2.3418   2.3602   2.3602   2.6531   4.2170   4.3821   4.3831   4.3831
     4.3867   4.4072   4.5690   4.5690   4.5698   4.5698   4.6237   4.7044
     4.7317   4.7656   4.7656   5.4630   6.0650   6.1225   6.1225   6.3679
     6.4526   6.5583   6.7957   6.7957   7.5820   7.5820   7.6695   8.0067
     8.5384   8.8789   8.8798   8.9368   8.9368   8.9941   8.9941   9.2093

          k =-0.5000-0.5000 0.2500 (  9476 PWs)   bands (ev):

    -2.1411  -2.0903  -2.0903  -1.9746  -0.9669  -0.9284  -0.9284  -0.7905
     1.3079   1.3414   1.3414   1.4261   2.3466   2.4055   2.4714   2.4790
     2.4790   2.4960   2.4960   2.7546   3.4411   3.5794   3.5826   3.5826
     3.5903   3.6341   3.6341   3.8295   4.5926   4.6561   4.6562   5.0043
     5.6575   5.7768   5.7833   5.7833   5.7976   5.8109   5.8109   6.2612
     6.7025   6.9239   6.9701   6.9701   7.7767   8.0274   8.0274   8.0532
     8.7925   8.9285   8.9285   8.9346   8.9428   8.9800   8.9800   9.2629

          k =-0.5000-0.5000-0.5000 (  9448 PWs)   bands (ev):

    -1.7869  -1.6975  -1.6974  -1.6974  -1.6074  -1.6074  -1.6074  -1.3393
     2.6502   2.6502   2.6779   2.6779   2.6780   2.7554   2.7554   2.7554
     2.7762   2.8438   2.8438   2.9070   2.9070   2.9070   2.9362   2.9362
     2.9363   3.0744   3.0744   3.0744   3.0762   3.0762   3.0763   4.0992
     6.8755   7.1007   7.1008   7.1008   7.2125   7.2125   7.2125   7.2205
     7.2205   7.2219   7.2219   7.2219   7.2790   7.2791   7.2915   7.2915
     7.2915   7.3128   7.3128   7.3128   7.7008   7.7008   7.7008   7.9177

     the Fermi energy is     7.8352 ev

!    total energy              =    -129.82069526 Ry
     Harris-Foulkes estimate   =    -129.82069528 Ry
     estimated scf accuracy    <       0.00000003 Ry

     The total energy is the sum of the following terms:

     one-electron contribution =      87.08020516 Ry
     hartree contribution      =       0.77872687 Ry
     xc contribution           =     -50.22147156 Ry
     ewald contribution        =    -167.46418145 Ry
     smearing contrib. (-TS)   =       0.00602572 Ry

     convergence has been achieved in  10 iterations

     Forces acting on atoms (cartesian axes, Ry/au):

     atom    1 type  1   force =    -0.00000025    0.00000015    0.00000002
     atom    2 type  1   force =    -0.00000036   -0.00402014   -0.00402052
     atom    3 type  1   force =    -0.01865987   -0.00000010    0.01865769
     atom    4 type  1   force =    -0.01866125    0.01865778    0.00000017
     atom    5 type  1   force =    -0.00000067    0.00000004    0.00000103
     atom    6 type  1   force =    -0.00000035   -0.00401985    0.00401911
     atom    7 type  1   force =    -0.01866014   -0.00000023   -0.01865877
     atom    8 type  1   force =     0.00401820   -0.00401999    0.00000124
     atom    9 type  1   force =    -0.00000026    0.00000084   -0.00000036
     atom   10 type  1   force =    -0.00000024    0.00401860   -0.00402033
     atom   11 type  1   force =     0.00401742    0.00000108   -0.00401988
     atom   12 type  1   force =    -0.01866056   -0.01865845    0.00000002
     atom   13 type  1   force =     0.00000026    0.00000154    0.00000166
     atom   14 type  1   force =    -0.00000029    0.00401824    0.00401898
     atom   15 type  1   force =     0.00401716    0.00000117    0.00401851
     atom   16 type  1   force =     0.00401809    0.00401861    0.00000132
     atom   17 type  1   force =     0.00000209    0.01865788    0.01865962
     atom   18 type  1   force =     0.01865872    0.00000026    0.01865855
     atom   19 type  1   force =     0.01865987    0.01865797    0.00000008
     atom   20 type  1   force =     0.00000179    0.00000026    0.00000095
     atom   21 type  1   force =     0.00000210    0.01865817   -0.01866065
     atom   22 type  1   force =     0.01865889    0.00000010   -0.01865955
     atom   23 type  1   force =    -0.00401947   -0.00402073    0.00000124
     atom   24 type  1   force =     0.00000141    0.00000144   -0.00000007
     atom   25 type  1   force =     0.00000172   -0.01865867    0.01865884
     atom   26 type  1   force =    -0.00401876    0.00000096   -0.00402017
     atom   27 type  1   force =     0.01865941   -0.01865897   -0.00000010
     atom   28 type  1   force =     0.00000126    0.00000068    0.00000111
     atom   29 type  1   force =     0.00000179   -0.01865894   -0.01865984
     atom   30 type  1   force =    -0.00401849    0.00000112    0.00401879
     atom   31 type  1   force =    -0.00401923    0.00401919    0.00000133

     Total force =     0.093507     Total SCF correction =     0.000224


     Computing stress (Cartesian axis) and pressure

          total   stress  (Ry/bohr**3)                   (kbar)     P=  -17.87
  -0.00012150   0.00000000  -0.00000000        -17.87      0.00     -0.00
   0.00000000  -0.00012150   0.00000000          0.00    -17.87      0.00
  -0.00000000   0.00000000  -0.00012149         -0.00      0.00    -17.87


     BFGS Geometry Optimization

     number of scf cycles    =   1
     number of bfgs steps    =   0

     energy   new            =    -129.8206952573 Ry

     new trust radius        =       0.0263885364 bohr
     new conv_thr            =       0.0000001000 Ry


ATOMIC_POSITIONS (angstrom)
Al      -0.000000151   0.000000063  -0.000000008
Al      -0.000000205   1.987770032   1.987769833
Al       2.085853140  -0.000000072   1.892307235
Al       2.085852412   1.892307284   0.000000071
Al      -0.000000365   0.000000004   3.978149543
Al      -0.000000198   1.987770186   5.968540478
Al       2.085852985  -0.000000138   6.064003194
Al       1.990391008   1.987770121   3.978149639
Al      -0.000000151   3.978149439  -0.000000210
Al      -0.000000139   5.968540210   1.987769933
Al       1.990390596   3.978149556   1.987770183
Al       2.085852761   6.064003365  -0.000000006
Al       0.000000121   3.978149774   3.978149837
Al      -0.000000169   5.968540018   5.968540409
Al       1.990390457   3.978149605   5.968540152
Al       1.990390950   5.968540204   3.978149679
Al       3.978150043   1.892307590   1.892308510
Al       5.870457082   0.000000121   1.892307989
Al       5.870457691   1.892307677   0.000000026
Al       3.978149894   0.000000122   3.978149484
Al       3.978150045   1.892307757   6.064001950
Al       5.870457188   0.000000035   6.064002492
Al       5.965919367   1.987769730   3.978149637
Al       3.978149696   3.978149742  -0.000000056
Al       3.978149843   6.064002998   1.892308112
Al       5.965919747   3.978149492   1.987770025
Al       5.870457460   6.064002799  -0.000000071
Al       3.978149623   3.978149356   3.978149583
Al       3.978149882   6.064002840   6.064002362
Al       5.965919890   3.978149575   5.968540304
Al       5.965919498   5.968540515   3.978149689



     Writing output data file Al.save
     NEW-OLD atomic charge density approx. for the potential

     total cpu time spent up to now is      719.7 secs

     per-process dynamical memory:    44.1 Mb

     Self-consistent Calculation

     iteration #  1     ecut=    30.00 Ry     beta=0.50
     Davidson diagonalization with overlap
     ethr =  1.00E-06,  avg # of iterations =  4.3

     total cpu time spent up to now is      783.0 secs

     total energy              =    -129.82820266 Ry
     Harris-Foulkes estimate   =    -129.82899485 Ry
     estimated scf accuracy    <       0.00126564 Ry

     iteration #  2     ecut=    30.00 Ry     beta=0.50
     Davidson diagonalization with overlap
     ethr =  1.36E-06,  avg # of iterations =  3.3

     total cpu time spent up to now is      845.8 secs

     total energy              =    -129.82825778 Ry
     Harris-Foulkes estimate   =    -129.82923629 Ry
     estimated scf accuracy    <       0.00306292 Ry

     iteration #  3     ecut=    30.00 Ry     beta=0.50
     Davidson diagonalization with overlap
     ethr =  1.36E-06,  avg # of iterations =  2.8

     total cpu time spent up to now is      895.6 secs

     total energy              =    -129.82872643 Ry
     Harris-Foulkes estimate   =    -129.82882511 Ry
     estimated scf accuracy    <       0.00036834 Ry

     iteration #  4     ecut=    30.00 Ry     beta=0.50
     Davidson diagonalization with overlap
     ethr =  3.96E-07,  avg # of iterations =  2.1

     total cpu time spent up to now is      936.1 secs

     total energy              =    -129.82877816 Ry
     Harris-Foulkes estimate   =    -129.82877516 Ry
     estimated scf accuracy    <       0.00000346 Ry

     iteration #  5     ecut=    30.00 Ry     beta=0.50
     Davidson diagonalization with overlap
     ethr =  3.72E-09,  avg # of iterations =  3.6

     total cpu time spent up to now is     1004.3 secs

     total energy              =    -129.82878002 Ry
     Harris-Foulkes estimate   =    -129.82877971 Ry
     estimated scf accuracy    <       0.00000109 Ry

     iteration #  6     ecut=    30.00 Ry     beta=0.50
     Davidson diagonalization with overlap
     ethr =  1.17E-09,  avg # of iterations =  2.0

     total cpu time spent up to now is     1043.3 secs

     total energy              =    -129.82878018 Ry
     Harris-Foulkes estimate   =    -129.82878012 Ry
     estimated scf accuracy    <       0.00000010 Ry

     iteration #  7     ecut=    30.00 Ry     beta=0.50
     Davidson diagonalization with overlap
     ethr =  1.10E-10,  avg # of iterations =  3.0

     total cpu time spent up to now is     1096.2 secs

     End of self-consistent calculation

          k = 0.0000 0.0000 0.0000 (  9435 PWs)   bands (ev):

    -3.3893  -1.1115  -1.1115  -1.1115  -1.0588  -1.0587  -0.9245   1.1196
     1.1196   1.1196   1.1445   1.1445   1.1445   1.1640   1.1640   1.3000
     1.3000   1.3000   1.9117   3.2199   3.4054   3.4054   3.4054   3.4972
     3.4972   3.4972   4.0462   5.1204   5.1204   5.1204   6.3687   6.3687
     6.5647   7.0616   7.0616   7.0616   7.1317   7.1317   7.1317   7.1844
     7.1844   7.1845   7.2837   7.2837   7.2837   8.0373   8.0373   8.1965
     8.1965   8.1965   8.3788   8.7745   9.1721   9.1721   9.1721   9.2203

          k = 0.0000 0.0000 0.2500 (  9450 PWs)   bands (ev):

    -3.2434  -2.0727  -0.9674  -0.9674  -0.9166  -0.8460   0.1762   0.1762
     0.1890   0.2404   0.3981   1.2602   1.3617   1.3617   1.5321   2.3783
     2.4079   2.4079   2.4874   2.4942   2.5103   2.5103   2.9400   3.6593
     4.6014   4.6626   4.6626   4.9741   5.2530   5.2530   5.6707   5.6707
     5.7383   5.8912   6.2736   6.2736   6.5102   6.6395   7.1786   7.2597
     7.3949   7.3949   7.5519   7.5865   7.7689   7.8913   7.8913   8.1655
     8.2128   8.2544   8.2944   8.2944   8.3236   8.4597   8.4597   8.8536

          k = 0.0000 0.0000-0.5000 (  9370 PWs)   bands (ev):

    -2.8524  -2.7507  -0.6275  -0.5619  -0.5417  -0.5417  -0.5315  -0.5315
    -0.3969  -0.1044   1.6180   1.6536   1.7102   1.7181   1.7464   1.7464
     1.8023   1.8216   1.8216   2.4175   3.8902   3.8902   3.9552   3.9959
     3.9959   4.0630   4.1774   4.2927   5.5625   5.5625   5.5864   5.5864
     5.9712   6.1753   6.1753   6.1913   6.3099   6.3099   6.3147   6.3978
     6.9219   6.9346   6.9360   7.3492   7.5242   7.5684   7.6626   7.6640
     7.6640   7.7533   7.9731   7.9731   9.0665   9.1696   9.1697   9.2003

          k = 0.0000 0.2500 0.0000 (  9450 PWs)   bands (ev):

    -3.2434  -2.0727  -0.9674  -0.9674  -0.9166  -0.8460   0.1762   0.1762
     0.1890   0.2404   0.3981   1.2602   1.3617   1.3617   1.5321   2.3783
     2.4079   2.4079   2.4874   2.4942   2.5103   2.5103   2.9400   3.6593
     4.6014   4.6626   4.6626   4.9741   5.2530   5.2530   5.6707   5.6707
     5.7383   5.8912   6.2736   6.2736   6.5102   6.6395   7.1786   7.2597
     7.3949   7.3949   7.5519   7.5865   7.7689   7.8913   7.8913   8.1655
     8.2128   8.2544   8.2944   8.2944   8.3236   8.4597   8.4597   8.8723

          k = 0.0000 0.2500 0.2500 (  9423 PWs)   bands (ev):

    -3.0974  -1.9548  -1.9020  -0.8645  -0.8236  -0.6279   0.2749   0.2814
     0.2838   0.3563   0.4055   0.6459   1.4497   1.4497   1.5018   1.7139
     2.5290   2.5889   2.6125   2.8716   3.5338   3.5752   3.6651   3.7296
     3.7841   3.8597   4.1868   4.7744   4.8630   5.3316   5.6666   5.8056
     5.8631   5.9516   6.0275   6.1530   6.3657   6.4487   6.7089   6.7636
     6.8440   6.9164   6.9564   7.1213   7.2705   7.4563   7.8195   8.1387
     8.2589   8.3479   8.4436   8.5322   8.9050   8.9681   9.0717   9.0872

          k = 0.0000 0.2500-0.5000 (  9398 PWs)   bands (ev):

    -2.7061  -2.6076  -1.5420  -1.4531  -0.3989  -0.3886  -0.3694  -0.2052
     0.7341   0.7344   0.7433   0.7500   0.7973   1.1010   1.8921   2.0016
     2.9268   2.9752   2.9886   3.0019   3.0944   3.3860   4.0255   4.0378
     4.1007   4.1300   4.2347   4.3755   5.1288   5.1315   5.1943   5.2481
     5.4172   5.4915   5.6921   5.8242   6.2321   6.2452   6.2608   6.6177
     6.7323   6.8980   7.0333   7.1069   7.3050   7.4608   7.5082   7.5794
     8.2188   8.3084   8.4827   8.6356   8.7646   8.8225   8.8664   8.9760

          k = 0.0000 0.2500-0.2500 (  9423 PWs)   bands (ev):

    -3.0974  -1.9548  -1.9020  -0.8645  -0.8236  -0.6279   0.2749   0.2814
     0.2838   0.3563   0.4055   0.6459   1.4497   1.4497   1.5018   1.7139
     2.5290   2.5889   2.6125   2.8716   3.5338   3.5752   3.6651   3.7296
     3.7841   3.8597   4.1868   4.7744   4.8630   5.3316   5.6666   5.8056
     5.8631   5.9516   6.0275   6.1530   6.3657   6.4487   6.7089   6.7636
     6.8440   6.9164   6.9564   7.1213   7.2705   7.4563   7.8195   8.1387
     8.2589   8.3479   8.4436   8.5322   8.9050   8.9681   9.0717   9.0872

          k = 0.0000-0.5000 0.0000 (  9370 PWs)   bands (ev):

    -2.8524  -2.7507  -0.6276  -0.5619  -0.5417  -0.5417  -0.5315  -0.5315
    -0.3969  -0.1044   1.6180   1.6536   1.7102   1.7181   1.7464   1.7464
     1.8023   1.8217   1.8217   2.4176   3.8902   3.8902   3.9552   3.9959
     3.9959   4.0630   4.1774   4.2927   5.5625   5.5625   5.5865   5.5865
     5.9712   6.1753   6.1753   6.1913   6.3099   6.3099   6.3147   6.3978
     6.9219   6.9347   6.9359   7.3492   7.5242   7.5684   7.6627   7.6640
     7.6640   7.7533   7.9731   7.9731   9.0665   9.1695   9.1701   9.2003

          k = 0.0000-0.5000 0.2500 (  9398 PWs)   bands (ev):

    -2.7061  -2.6075  -1.5420  -1.4530  -0.3989  -0.3886  -0.3695  -0.2052
     0.7341   0.7343   0.7433   0.7501   0.7972   1.1010   1.8921   2.0016
     2.9267   2.9751   2.9887   3.0019   3.0944   3.3861   4.0255   4.0377
     4.1007   4.1300   4.2347   4.3755   5.1288   5.1315   5.1943   5.2481
     5.4172   5.4915   5.6920   5.8243   6.2321   6.2452   6.2607   6.6177
     6.7323   6.8980   7.0333   7.1069   7.3050   7.4608   7.5082   7.5794
     8.2187   8.3085   8.4827   8.6356   8.7646   8.8224   8.8664   8.9760

          k = 0.0000-0.5000-0.5000 (  9476 PWs)   bands (ev):

    -2.2882  -2.2464  -2.2463  -2.0922  -0.0100   0.0083   0.0513   0.0513
     0.0671   0.0727   0.0727   0.4334   2.2110   2.2779   2.3154   2.3286
     2.3287   2.3701   2.3702   2.6727   4.2244   4.3671   4.3761   4.3784
     4.3784   4.4215   4.5628   4.5629   4.5789   4.5789   4.6266   4.6847
     4.7088   4.7773   4.7773   5.4846   6.0597   6.1062   6.1062   6.4013
     6.4638   6.5665   6.7893   6.7894   7.5758   7.5758   7.6620   8.0342
     8.5627   8.8749   8.8892   8.9226   8.9226   8.9987   8.9987   9.2148

          k = 0.2500 0.0000 0.0000 (  9450 PWs)   bands (ev):

    -3.2434  -2.0727  -0.9674  -0.9674  -0.9166  -0.8460   0.1762   0.1762
     0.1890   0.2404   0.3981   1.2602   1.3617   1.3617   1.5321   2.3783
     2.4079   2.4079   2.4874   2.4942   2.5103   2.5103   2.9400   3.6593
     4.6014   4.6626   4.6626   4.9741   5.2530   5.2530   5.6707   5.6707
     5.7383   5.8912   6.2736   6.2736   6.5102   6.6394   7.1786   7.2597
     7.3949   7.3949   7.5519   7.5865   7.7689   7.8913   7.8913   8.1655
     8.2128   8.2544   8.2944   8.2944   8.3236   8.4597   8.4597   8.8724

          k = 0.2500 0.0000 0.2500 (  9423 PWs)   bands (ev):

    -3.0974  -1.9548  -1.9020  -0.8645  -0.8236  -0.6279   0.2749   0.2814
     0.2838   0.3563   0.4055   0.6459   1.4497   1.4497   1.5018   1.7139
     2.5290   2.5889   2.6125   2.8716   3.5338   3.5752   3.6651   3.7296
     3.7841   3.8597   4.1868   4.7744   4.8630   5.3316   5.6666   5.8056
     5.8631   5.9516   6.0275   6.1530   6.3657   6.4487   6.7089   6.7636
     6.8440   6.9164   6.9564   7.1213   7.2705   7.4563   7.8195   8.1387
     8.2589   8.3479   8.4436   8.5322   8.9050   8.9681   9.0717   9.0872

          k = 0.2500 0.0000-0.5000 (  9398 PWs)   bands (ev):

    -2.7061  -2.6076  -1.5420  -1.4531  -0.3989  -0.3886  -0.3694  -0.2052
     0.7341   0.7344   0.7433   0.7500   0.7973   1.1010   1.8921   2.0016
     2.9268   2.9752   2.9886   3.0019   3.0944   3.3860   4.0255   4.0378
     4.1007   4.1300   4.2347   4.3755   5.1288   5.1315   5.1943   5.2481
     5.4172   5.4915   5.6921   5.8242   6.2321   6.2452   6.2608   6.6177
     6.7323   6.8980   7.0333   7.1069   7.3050   7.4608   7.5082   7.5794
     8.2188   8.3084   8.4827   8.6356   8.7646   8.8224   8.8664   8.9759

          k = 0.2500 0.0000-0.2500 (  9423 PWs)   bands (ev):

    -3.0974  -1.9548  -1.9020  -0.8645  -0.8236  -0.6279   0.2749   0.2814
     0.2838   0.3563   0.4055   0.6459   1.4497   1.4497   1.5018   1.7139
     2.5290   2.5889   2.6125   2.8716   3.5338   3.5752   3.6651   3.7296
     3.7841   3.8597   4.1868   4.7744   4.8630   5.3316   5.6666   5.8056
     5.8631   5.9516   6.0275   6.1530   6.3657   6.4487   6.7089   6.7636
     6.8440   6.9164   6.9564   7.1213   7.2705   7.4563   7.8195   8.1387
     8.2589   8.3479   8.4436   8.5322   8.9050   8.9681   9.0717   9.0872

          k = 0.2500 0.2500 0.0000 (  9423 PWs)   bands (ev):

    -3.0974  -1.9548  -1.9020  -0.8645  -0.8236  -0.6279   0.2749   0.2813
     0.2838   0.3563   0.4055   0.6459   1.4497   1.4497   1.5018   1.7139
     2.5290   2.5889   2.6124   2.8716   3.5338   3.5752   3.6651   3.7296
     3.7841   3.8597   4.1868   4.7744   4.8631   5.3316   5.6666   5.8056
     5.8631   5.9516   6.0275   6.1530   6.3657   6.4487   6.7089   6.7636
     6.8441   6.9164   6.9564   7.1213   7.2705   7.4563   7.8195   8.1387
     8.2589   8.3479   8.4436   8.5322   8.9050   8.9681   9.0717   9.0872

          k = 0.2500 0.2500 0.2500 (  9444 PWs)   bands (ev):

    -2.9518  -1.8099  -1.8098  -1.7384  -0.6531  -0.6531  -0.5655   0.4277
     0.4901   0.4901   0.6471   1.5636   1.5636   1.6021   1.6021   1.7211
     1.9478   2.7528   2.7528   2.8155   3.7736   3.7736   3.8217   3.9136
     3.9136   4.0894   4.8008   4.8008   4.8486   4.8486   4.9935   5.0016
     5.0821   5.0821   5.2911   6.0098   6.0098   6.2276   7.0298   7.0298
     7.0686   7.0888   7.1576   7.2339   7.2339   8.1126   8.1126   8.1341
     8.1880   8.2795   8.2795   8.4582   8.4582   8.5508   9.4045   9.4045

          k = 0.2500 0.2500-0.5000 (  9418 PWs)   bands (ev):

    -2.5599  -2.4647  -1.4500  -1.4115  -1.3365  -1.1824  -0.2405  -0.1517
     0.8404   0.8741   0.9566   1.1120   1.9038   1.9944   2.0230   2.0531
     2.0974   2.4043   3.0980   3.1927   3.2082   3.2744   4.0681   4.1214
     4.2131   4.2245   4.2849   4.3601   4.3648   4.6828   5.1360   5.1591
     5.1846   5.3912   5.4672   5.4976   5.5650   5.8034   6.4453   6.4719
     6.5029   6.6760   7.3932   7.5081   7.5641   7.6782   8.3817   8.4024
     8.4025   8.4215   8.6065   8.7296   8.9096   8.9504   9.0708   9.2361

          k = 0.2500 0.2500-0.2500 (  9444 PWs)   bands (ev):

    -2.9518  -1.8099  -1.8098  -1.7384  -0.6531  -0.6531  -0.5655   0.4277
     0.4901   0.4901   0.6471   1.5636   1.5636   1.6021   1.6021   1.7211
     1.9478   2.7528   2.7528   2.8155   3.7736   3.7736   3.8217   3.9136
     3.9136   4.0894   4.8008   4.8008   4.8486   4.8486   4.9935   5.0016
     5.0821   5.0821   5.2911   6.0098   6.0098   6.2276   7.0298   7.0298
     7.0686   7.0888   7.1576   7.2339   7.2339   8.1126   8.1126   8.1341
     8.1880   8.2795   8.2795   8.4582   8.4582   8.5508   9.4045   9.4045

          k = 0.2500-0.5000 0.0000 (  9398 PWs)   bands (ev):

    -2.7061  -2.6075  -1.5420  -1.4530  -0.3989  -0.3886  -0.3695  -0.2052
     0.7341   0.7343   0.7433   0.7501   0.7972   1.1010   1.8921   2.0016
     2.9268   2.9751   2.9887   3.0019   3.0944   3.3861   4.0255   4.0377
     4.1007   4.1300   4.2346   4.3755   5.1288   5.1315   5.1943   5.2481
     5.4172   5.4915   5.6920   5.8243   6.2321   6.2452   6.2607   6.6177
     6.7323   6.8980   7.0333   7.1069   7.3050   7.4608   7.5082   7.5794
     8.2187   8.3085   8.4827   8.6356   8.7646   8.8224   8.8664   8.9760

          k = 0.2500-0.5000 0.2500 (  9418 PWs)   bands (ev):

    -2.5600  -2.4647  -1.4500  -1.4114  -1.3366  -1.1824  -0.2405  -0.1516
     0.8404   0.8741   0.9565   1.1121   1.9038   1.9944   2.0229   2.0531
     2.0974   2.4043   3.0980   3.1927   3.2081   3.2744   4.0682   4.1214
     4.2131   4.2245   4.2850   4.3602   4.3648   4.6828   5.1360   5.1591
     5.1845   5.3912   5.4672   5.4976   5.5650   5.8034   6.4453   6.4719
     6.5029   6.6760   7.3932   7.5080   7.5642   7.6782   8.3817   8.4024
     8.4025   8.4215   8.6065   8.7296   8.9096   8.9503   9.0708   9.2361

          k = 0.2500-0.5000-0.5000 (  9476 PWs)   bands (ev):

    -2.1440  -2.1012  -2.1011  -1.9611  -0.9738  -0.9399  -0.9398  -0.7590
     1.3028   1.3322   1.3322   1.4481   2.3505   2.4069   2.4543   2.4683
     2.4683   2.5017   2.5017   2.7733   3.4461   3.5608   3.5674   3.5675
     3.5716   3.6558   3.6559   3.8474   4.5868   4.6410   4.6410   5.0399
     5.6634   5.7622   5.7700   5.7700   5.7780   5.8279   5.8279   6.2750
     6.7137   6.9318   6.9669   6.9669   7.7931   8.0212   8.0212   8.0503
     8.7970   8.9199   8.9234   8.9331   8.9331   8.9842   8.9842   9.2344

          k = 0.2500-0.5000-0.2500 (  9418 PWs)   bands (ev):

    -2.5600  -2.4647  -1.4500  -1.4114  -1.3366  -1.1824  -0.2405  -0.1516
     0.8404   0.8741   0.9565   1.1121   1.9038   1.9944   2.0229   2.0531
     2.0974   2.4043   3.0980   3.1927   3.2081   3.2744   4.0682   4.1214
     4.2131   4.2245   4.2850   4.3602   4.3648   4.6828   5.1360   5.1591
     5.1845   5.3912   5.4672   5.4976   5.5650   5.8034   6.4453   6.4719
     6.5029   6.6760   7.3932   7.5080   7.5642   7.6782   8.3817   8.4024
     8.4025   8.4215   8.6065   8.7296   8.9096   8.9503   9.0708   9.2361

          k = 0.2500-0.2500 0.0000 (  9423 PWs)   bands (ev):

    -3.0974  -1.9548  -1.9020  -0.8645  -0.8236  -0.6279   0.2749   0.2813
     0.2838   0.3563   0.4055   0.6459   1.4497   1.4497   1.5018   1.7139
     2.5290   2.5889   2.6124   2.8716   3.5338   3.5752   3.6651   3.7296
     3.7841   3.8597   4.1868   4.7744   4.8631   5.3316   5.6666   5.8056
     5.8631   5.9516   6.0275   6.1530   6.3657   6.4487   6.7089   6.7636
     6.8441   6.9164   6.9563   7.1213   7.2705   7.4563   7.8195   8.1387
     8.2589   8.3479   8.4436   8.5322   8.9050   8.9681   9.0717   9.0872

          k = 0.2500-0.2500 0.2500 (  9444 PWs)   bands (ev):

    -2.9518  -1.8099  -1.8098  -1.7384  -0.6531  -0.6531  -0.5655   0.4277
     0.4901   0.4901   0.6471   1.5636   1.5636   1.6021   1.6021   1.7211
     1.9478   2.7528   2.7528   2.8155   3.7736   3.7736   3.8217   3.9136
     3.9136   4.0894   4.8008   4.8008   4.8486   4.8486   4.9935   5.0016
     5.0821   5.0821   5.2911   6.0098   6.0098   6.2276   7.0298   7.0298
     7.0686   7.0888   7.1576   7.2339   7.2339   8.1126   8.1126   8.1341
     8.1880   8.2795   8.2795   8.4582   8.4582   8.5508   9.4045   9.4045

          k = 0.2500-0.2500-0.5000 (  9418 PWs)   bands (ev):

    -2.5599  -2.4647  -1.4500  -1.4115  -1.3365  -1.1824  -0.2405  -0.1517
     0.8404   0.8741   0.9566   1.1120   1.9038   1.9944   2.0230   2.0531
     2.0974   2.4043   3.0980   3.1927   3.2082   3.2744   4.0681   4.1214
     4.2131   4.2245   4.2849   4.3601   4.3648   4.6828   5.1360   5.1591
     5.1846   5.3912   5.4672   5.4976   5.5650   5.8034   6.4453   6.4719
     6.5029   6.6760   7.3932   7.5081   7.5641   7.6782   8.3817   8.4024
     8.4025   8.4215   8.6065   8.7296   8.9096   8.9504   9.0708   9.2361

          k = 0.2500-0.2500-0.2500 (  9444 PWs)   bands (ev):

    -2.9518  -1.8099  -1.8098  -1.7384  -0.6531  -0.6531  -0.5655   0.4277
     0.4901   0.4901   0.6471   1.5636   1.5636   1.6021   1.6021   1.7211
     1.9478   2.7528   2.7528   2.8155   3.7736   3.7736   3.8217   3.9136
     3.9136   4.0894   4.8008   4.8008   4.8486   4.8486   4.9935   5.0016
     5.0821   5.0821   5.2911   6.0098   6.0098   6.2276   7.0298   7.0298
     7.0686   7.0888   7.1576   7.2339   7.2339   8.1126   8.1126   8.1341
     8.1880   8.2795   8.2795   8.4582   8.4582   8.5508   9.4045   9.4045

          k =-0.5000 0.0000 0.0000 (  9370 PWs)   bands (ev):

    -2.8524  -2.7507  -0.6276  -0.5619  -0.5417  -0.5417  -0.5315  -0.5315
    -0.3969  -0.1044   1.6181   1.6536   1.7102   1.7181   1.7464   1.7464
     1.8023   1.8217   1.8217   2.4176   3.8902   3.8902   3.9552   3.9959
     3.9959   4.0630   4.1774   4.2927   5.5625   5.5625   5.5865   5.5865
     5.9712   6.1753   6.1753   6.1913   6.3099   6.3099   6.3147   6.3978
     6.9219   6.9347   6.9359   7.3492   7.5241   7.5684   7.6627   7.6640
     7.6640   7.7533   7.9731   7.9731   9.0665   9.1695   9.1695   9.2003

          k =-0.5000 0.0000 0.2500 (  9398 PWs)   bands (ev):

    -2.7061  -2.6075  -1.5420  -1.4530  -0.3989  -0.3886  -0.3695  -0.2052
     0.7341   0.7343   0.7433   0.7501   0.7972   1.1010   1.8921   2.0016
     2.9267   2.9751   2.9887   3.0019   3.0944   3.3861   4.0255   4.0377
     4.1007   4.1300   4.2347   4.3755   5.1288   5.1315   5.1943   5.2481
     5.4172   5.4915   5.6920   5.8243   6.2321   6.2452   6.2607   6.6177
     6.7323   6.8980   7.0333   7.1069   7.3050   7.4608   7.5082   7.5794
     8.2187   8.3085   8.4827   8.6356   8.7646   8.8224   8.8664   8.9760

          k =-0.5000 0.0000-0.5000 (  9476 PWs)   bands (ev):

    -2.2882  -2.2464  -2.2463  -2.0922  -0.0100   0.0083   0.0513   0.0513
     0.0671   0.0727   0.0727   0.4334   2.2110   2.2779   2.3154   2.3286
     2.3287   2.3701   2.3702   2.6727   4.2244   4.3671   4.3761   4.3784
     4.3784   4.4215   4.5628   4.5629   4.5789   4.5789   4.6266   4.6847
     4.7088   4.7773   4.7773   5.4846   6.0597   6.1062   6.1062   6.4013
     6.4638   6.5665   6.7893   6.7894   7.5758   7.5758   7.6619   8.0342
     8.5627   8.8749   8.8892   8.9226   8.9226   8.9987   8.9987   9.2148

          k =-0.5000 0.2500 0.0000 (  9398 PWs)   bands (ev):

    -2.7061  -2.6075  -1.5420  -1.4530  -0.3989  -0.3886  -0.3695  -0.2052
     0.7341   0.7343   0.7433   0.7501   0.7972   1.1010   1.8921   2.0016
     2.9267   2.9751   2.9887   3.0019   3.0944   3.3861   4.0255   4.0377
     4.1007   4.1300   4.2346   4.3755   5.1288   5.1315   5.1943   5.2481
     5.4172   5.4915   5.6920   5.8243   6.2321   6.2452   6.2607   6.6177
     6.7323   6.8980   7.0333   7.1069   7.3050   7.4608   7.5082   7.5794
     8.2187   8.3085   8.4827   8.6356   8.7646   8.8224   8.8664   8.9760

          k =-0.5000 0.2500 0.2500 (  9418 PWs)   bands (ev):

    -2.5600  -2.4647  -1.4500  -1.4114  -1.3366  -1.1824  -0.2405  -0.1516
     0.8404   0.8741   0.9565   1.1121   1.9038   1.9944   2.0229   2.0531
     2.0974   2.4043   3.0980   3.1927   3.2082   3.2744   4.0682   4.1214
     4.2131   4.2245   4.2850   4.3602   4.3648   4.6828   5.1360   5.1591
     5.1845   5.3912   5.4671   5.4976   5.5650   5.8034   6.4453   6.4719
     6.5029   6.6760   7.3932   7.5080   7.5642   7.6782   8.3817   8.4024
     8.4025   8.4215   8.6065   8.7296   8.9096   8.9503   9.0708   9.2361

          k =-0.5000 0.2500-0.5000 (  9476 PWs)   bands (ev):

    -2.1440  -2.1012  -2.1011  -1.9611  -0.9738  -0.9399  -0.9398  -0.7590
     1.3028   1.3322   1.3322   1.4481   2.3505   2.4069   2.4543   2.4683
     2.4683   2.5017   2.5017   2.7733   3.4461   3.5608   3.5674   3.5675
     3.5716   3.6558   3.6559   3.8474   4.5868   4.6410   4.6410   5.0399
     5.6634   5.7622   5.7700   5.7700   5.7780   5.8279   5.8279   6.2750
     6.7137   6.9318   6.9669   6.9669   7.7931   8.0212   8.0212   8.0503
     8.7970   8.9199   8.9234   8.9331   8.9331   8.9842   8.9842   9.2344

          k =-0.5000 0.2500-0.2500 (  9418 PWs)   bands (ev):

    -2.5600  -2.4647  -1.4500  -1.4114  -1.3366  -1.1824  -0.2405  -0.1516
     0.8404   0.8741   0.9565   1.1121   1.9038   1.9944   2.0229   2.0531
     2.0974   2.4043   3.0980   3.1927   3.2082   3.2744   4.0682   4.1214
     4.2131   4.2245   4.2850   4.3602   4.3648   4.6828   5.1360   5.1591
     5.1845   5.3912   5.4671   5.4976   5.5650   5.8034   6.4453   6.4719
     6.5029   6.6760   7.3932   7.5080   7.5642   7.6782   8.3817   8.4024
     8.4025   8.4215   8.6065   8.7296   8.9096   8.9503   9.0708   9.2361

          k =-0.5000-0.5000 0.0000 (  9476 PWs)   bands (ev):

    -2.2882  -2.2464  -2.2464  -2.0922  -0.0100   0.0083   0.0513   0.0513
     0.0670   0.0727   0.0727   0.4334   2.2110   2.2779   2.3154   2.3286
     2.3286   2.3702   2.3702   2.6727   4.2244   4.3671   4.3761   4.3784
     4.3784   4.4215   4.5628   4.5628   4.5789   4.5789   4.6266   4.6847
     4.7088   4.7773   4.7773   5.4846   6.0597   6.1062   6.1062   6.4014
     6.4638   6.5665   6.7894   6.7894   7.5758   7.5758   7.6619   8.0342
     8.5627   8.8749   8.8892   8.9226   8.9226   8.9987   8.9987   9.2148

          k =-0.5000-0.5000 0.2500 (  9476 PWs)   bands (ev):

    -2.1441  -2.1011  -2.1011  -1.9610  -0.9738  -0.9399  -0.9399  -0.7590
     1.3027   1.3322   1.3322   1.4481   2.3505   2.4069   2.4543   2.4683
     2.4683   2.5017   2.5017   2.7733   3.4461   3.5608   3.5675   3.5675
     3.5717   3.6559   3.6559   3.8475   4.5867   4.6410   4.6410   5.0399
     5.6634   5.7622   5.7700   5.7700   5.7780   5.8279   5.8279   6.2750
     6.7137   6.9318   6.9669   6.9669   7.7931   8.0212   8.0212   8.0503
     8.7970   8.9199   8.9234   8.9331   8.9331   8.9842   8.9842   9.2344

          k =-0.5000-0.5000-0.5000 (  9448 PWs)   bands (ev):

    -1.7784  -1.7016  -1.7016  -1.7015  -1.6259  -1.6258  -1.6258  -1.2898
     2.6696   2.6697   2.6965   2.6965   2.6965   2.7515   2.7515   2.7515
     2.7753   2.8364   2.8364   2.8939   2.8939   2.8939   2.9077   2.9077
     2.9077   3.0389   3.0389   3.0389   3.1165   3.1165   3.1165   4.1369
     6.9052   7.1117   7.1117   7.1117   7.2007   7.2007   7.2007   7.2040
     7.2040   7.2213   7.2213   7.2213   7.2628   7.2629   7.2905   7.2905
     7.2905   7.3031   7.3031   7.3031   7.7154   7.7154   7.7154   7.9656

     the Fermi energy is     7.8375 ev

!    total energy              =    -129.82878018 Ry
     Harris-Foulkes estimate   =    -129.82878021 Ry
     estimated scf accuracy    <       0.00000004 Ry

     The total energy is the sum of the following terms:

     one-electron contribution =      86.99959770 Ry
     hartree contribution      =       0.81790764 Ry
     xc contribution           =     -50.22131628 Ry
     ewald contribution        =    -167.43096753 Ry
     smearing contrib. (-TS)   =       0.00599829 Ry

     convergence has been achieved in   7 iterations

     Forces acting on atoms (cartesian axes, Ry/au):

     atom    1 type  1   force =     0.00000166   -0.00000139   -0.00000047
     atom    2 type  1   force =     0.00000132   -0.00316126   -0.00316345
     atom    3 type  1   force =    -0.01592016   -0.00000140    0.01591253
     atom    4 type  1   force =    -0.01591931    0.01591535   -0.00000052
     atom    5 type  1   force =     0.00000142   -0.00000124    0.00000129
     atom    6 type  1   force =     0.00000130   -0.00316130    0.00316235
     atom    7 type  1   force =    -0.01591992   -0.00000134   -0.01591346
     atom    8 type  1   force =     0.00315736   -0.00316088    0.00000144
     atom    9 type  1   force =     0.00000139    0.00000216   -0.00000042
     atom   10 type  1   force =     0.00000131    0.00316014   -0.00316361
     atom   11 type  1   force =     0.00315798    0.00000228   -0.00316369
     atom   12 type  1   force =    -0.01591903   -0.01591644   -0.00000046
     atom   13 type  1   force =     0.00000121    0.00000227    0.00000153
     atom   14 type  1   force =     0.00000131    0.00316017    0.00316249
     atom   15 type  1   force =     0.00315799    0.00000224    0.00316259
     atom   16 type  1   force =     0.00315749    0.00315978    0.00000141
     atom   17 type  1   force =    -0.00000025    0.01591712    0.01591336
     atom   18 type  1   force =     0.01591888   -0.00000147    0.01591288
     atom   19 type  1   force =     0.01591802    0.01591578   -0.00000053
     atom   20 type  1   force =    -0.00000056   -0.00000144    0.00000168
     atom   21 type  1   force =    -0.00000024    0.01591686   -0.01591429
     atom   22 type  1   force =     0.01591866   -0.00000140   -0.01591382
     atom   23 type  1   force =    -0.00315825   -0.00316065    0.00000146
     atom   24 type  1   force =    -0.00000047    0.00000270   -0.00000044
     atom   25 type  1   force =    -0.00000019   -0.01591813    0.01591305
     atom   26 type  1   force =    -0.00315892    0.00000228   -0.00316354
     atom   27 type  1   force =     0.01591769   -0.01591681   -0.00000045
     atom   28 type  1   force =    -0.00000015    0.00000212    0.00000126
     atom   29 type  1   force =    -0.00000019   -0.01591789   -0.01591400
     atom   30 type  1   force =    -0.00315893    0.00000223    0.00316244
     atom   31 type  1   force =    -0.00315842    0.00315959    0.00000141

     Total force =     0.079497     Total SCF correction =     0.000253


     Computing stress (Cartesian axis) and pressure

          total   stress  (Ry/bohr**3)                   (kbar)     P=  -18.68
  -0.00012699  -0.00000000   0.00000000        -18.68     -0.00      0.00
  -0.00000000  -0.00012699  -0.00000000         -0.00    -18.68     -0.00
   0.00000000  -0.00000000  -0.00012700          0.00     -0.00    -18.68


     number of scf cycles    =   2
     number of bfgs steps    =   1

     energy   old            =    -129.8206952573 Ry
     energy   new            =    -129.8287801779 Ry

     CASE: energy  _new < energy  _old


     WARNING: bfgs curvature condition failed, Theta= 0.941
     new trust radius        =       0.0290273901 bohr
     new conv_thr            =       0.0000000159 Ry


ATOMIC_POSITIONS (angstrom)
Al       0.000000895  -0.000000819  -0.000000307
Al       0.000000619   1.985600723   1.985599113
Al       2.074989973  -0.000000971   1.903165461
Al       2.074989732   1.903167307  -0.000000255
Al       0.000000513  -0.000000786   3.978150406
Al       0.000000618   1.985600858   5.970710443
Al       2.074989958  -0.000000999   6.053144336
Al       1.992557759   1.985601057   3.978150607
Al       0.000000727   3.978150845  -0.000000494
Al       0.000000688   5.970708747   1.985599115
Al       1.992557714   3.978151050   1.985599333
Al       2.074990288   6.053142622  -0.000000296
Al       0.000000902   3.978151277   3.978150875
Al       0.000000653   5.970708562   5.970710461
Al       1.992557573   3.978151076   5.970710245
Al       1.992557782   5.970708512   3.978150626
Al       3.978149965   1.903168743   1.903167337
Al       5.881319388  -0.000000808   1.903166466
Al       5.881319494   1.903167984  -0.000000310
Al       3.978149605  -0.000000782   3.978150589
Al       3.978149975   1.903168754   6.053142491
Al       5.881319362  -0.000000852   6.053143376
Al       5.963751995   1.985600782   3.978150614
Al       3.978149449   3.978151518  -0.000000339
Al       3.978149790   6.053141169   1.903166710
Al       5.963751978   3.978150981   1.985599257
Al       5.881319039   6.053141798  -0.000000362
Al       3.978149576   3.978150731   3.978150430
Al       3.978149831   6.053141158   6.053143117
Al       5.963752128   3.978151038   5.970710316
Al       5.963752031   5.970708724   3.978150640



     Writing output data file Al.save
     NEW-OLD atomic charge density approx. for the potential

     total cpu time spent up to now is     1174.4 secs

     per-process dynamical memory:    44.5 Mb

     Self-consistent Calculation

     iteration #  1     ecut=    30.00 Ry     beta=0.50
     Davidson diagonalization with overlap
     ethr =  1.00E-06,  avg # of iterations =  4.8

     total cpu time spent up to now is     1248.4 secs

     total energy              =    -129.83547944 Ry
     Harris-Foulkes estimate   =    -129.83641665 Ry
     estimated scf accuracy    <       0.00149455 Ry

     iteration #  2     ecut=    30.00 Ry     beta=0.50
     Davidson diagonalization with overlap
     ethr =  1.61E-06,  avg # of iterations =  3.1

     total cpu time spent up to now is     1308.0 secs

     total energy              =    -129.83553657 Ry
     Harris-Foulkes estimate   =    -129.83670861 Ry
     estimated scf accuracy    <       0.00368764 Ry

     iteration #  3     ecut=    30.00 Ry     beta=0.50
     Davidson diagonalization with overlap
     ethr =  1.61E-06,  avg # of iterations =  2.7

     total cpu time spent up to now is     1361.5 secs

     total energy              =    -129.83610012 Ry
     Harris-Foulkes estimate   =    -129.83621269 Ry
     estimated scf accuracy    <       0.00041743 Ry

     iteration #  4     ecut=    30.00 Ry     beta=0.50
     Davidson diagonalization with overlap
     ethr =  4.49E-07,  avg # of iterations =  2.1

     total cpu time spent up to now is     1402.4 secs

     total energy              =    -129.83615930 Ry
     Harris-Foulkes estimate   =    -129.83615582 Ry
     estimated scf accuracy    <       0.00000405 Ry

     iteration #  5     ecut=    30.00 Ry     beta=0.50
     Davidson diagonalization with overlap
     ethr =  4.36E-09,  avg # of iterations =  3.6

     total cpu time spent up to now is     1466.7 secs

     total energy              =    -129.83616139 Ry
     Harris-Foulkes estimate   =    -129.83616103 Ry
     estimated scf accuracy    <       0.00000122 Ry

     iteration #  6     ecut=    30.00 Ry     beta=0.50
     Davidson diagonalization with overlap
     ethr =  1.31E-09,  avg # of iterations =  2.0

     total cpu time spent up to now is     1504.6 secs

     total energy              =    -129.83616157 Ry
     Harris-Foulkes estimate   =    -129.83616150 Ry
     estimated scf accuracy    <       0.00000011 Ry

     iteration #  7     ecut=    30.00 Ry     beta=0.50
     Davidson diagonalization with overlap
     ethr =  1.23E-10,  avg # of iterations =  3.0

     total cpu time spent up to now is     1559.2 secs

     total energy              =    -129.83616160 Ry
     Harris-Foulkes estimate   =    -129.83616161 Ry
     estimated scf accuracy    <       0.00000005 Ry

     iteration #  8     ecut=    30.00 Ry     beta=0.50
     Davidson diagonalization with overlap
     ethr =  5.08E-11,  avg # of iterations =  2.1

     total cpu time spent up to now is     1599.6 secs

     total energy              =    -129.83616160 Ry
     Harris-Foulkes estimate   =    -129.83616160 Ry
     estimated scf accuracy    <       0.00000002 Ry

     iteration #  9     ecut=    30.00 Ry     beta=0.50
     Davidson diagonalization with overlap
     ethr =  1.90E-11,  avg # of iterations =  2.1

     total cpu time spent up to now is     1639.2 secs

     End of self-consistent calculation

          k = 0.0000 0.0000 0.0000 (  9435 PWs)   bands (ev):

    -3.3936  -1.1136  -1.1136  -1.1136  -1.0820  -1.0820  -0.8864   1.1170
     1.1170   1.1170   1.1507   1.1507   1.1761   1.1761   1.1761   1.2640
     1.2641   1.2641   1.9434   3.2168   3.4045   3.4045   3.4045   3.4963
     3.4963   3.4963   4.0698   5.1180   5.1180   5.1180   6.3678   6.3678
     6.5708   7.0758   7.0758   7.0758   7.1105   7.1105   7.1105   7.1574
     7.1574   7.1574   7.3103   7.3103   7.3103   8.0676   8.0676   8.1930
     8.1930   8.1930   8.3183   8.8325   9.1595   9.1596   9.1596   9.2199

          k = 0.0000 0.0000 0.2500 (  9450 PWs)   bands (ev):

    -3.2480  -2.0771  -0.9695  -0.9695  -0.9395  -0.8293   0.1755   0.1755
     0.1896   0.2157   0.4174   1.2577   1.3598   1.3598   1.5340   2.3755
     2.4031   2.4031   2.4692   2.4976   2.5100   2.5100   2.9662   3.6587
     4.6008   4.6624   4.6624   4.9872   5.2511   5.2511   5.6662   5.6662
     5.7139   5.9199   6.2712   6.2712   6.5093   6.6434   7.1925   7.2390
     7.3921   7.3921   7.5490   7.5870   7.7804   7.8849   7.8849   8.1693
     8.2216   8.2617   8.2943   8.2943   8.3003   8.4631   8.4631   8.8330

          k = 0.0000 0.0000-0.5000 (  9370 PWs)   bands (ev):

    -2.8617  -2.7499  -0.6145  -0.5777  -0.5519  -0.5519  -0.5246  -0.5246
    -0.4289  -0.0786   1.6249   1.6585   1.6999   1.7051   1.7365   1.7365
     1.8074   1.8285   1.8285   2.4250   3.8914   3.8914   3.9345   3.9884
     3.9884   4.0345   4.2056   4.3234   5.5505   5.5505   5.5988   5.5988
     5.9833   6.1764   6.1764   6.1809   6.2981   6.2981   6.3244   6.4049
     6.9062   6.9389   6.9492   7.3520   7.5249   7.5543   7.6544   7.6544
     7.6903   7.7231   7.9836   7.9836   9.0767   9.1621   9.1622   9.2123

          k = 0.0000 0.2500 0.0000 (  9450 PWs)   bands (ev):

    -3.2480  -2.0771  -0.9695  -0.9695  -0.9395  -0.8293   0.1755   0.1755
     0.1896   0.2157   0.4174   1.2577   1.3598   1.3598   1.5340   2.3755
     2.4031   2.4031   2.4692   2.4976   2.5100   2.5100   2.9662   3.6587
     4.6008   4.6624   4.6624   4.9872   5.2511   5.2511   5.6662   5.6662
     5.7139   5.9199   6.2712   6.2712   6.5093   6.6434   7.1925   7.2390
     7.3921   7.3921   7.5490   7.5870   7.7804   7.8849   7.8849   8.1693
     8.2216   8.2617   8.2943   8.2943   8.3003   8.4631   8.4631   8.8888

          k = 0.0000 0.2500 0.2500 (  9423 PWs)   bands (ev):

    -3.1021  -1.9673  -1.8973  -0.8657  -0.8256  -0.6335   0.2718   0.2828
     0.2980   0.3382   0.3964   0.6538   1.4475   1.4479   1.4997   1.7198
     2.5439   2.5795   2.5922   2.8786   3.5324   3.5737   3.6614   3.7299
     3.7835   3.8572   4.2053   4.7620   4.8701   5.3299   5.6637   5.8029
     5.8644   5.9521   6.0323   6.1539   6.3467   6.4569   6.7139   6.7724
     6.8340   6.9277   6.9354   7.1185   7.2794   7.4647   7.8133   8.1470
     8.2578   8.3519   8.4284   8.5453   8.9137   8.9756   9.0808   9.0817

          k = 0.0000 0.2500-0.5000 (  9398 PWs)   bands (ev):

    -2.7152  -2.6076  -1.5501  -1.4504  -0.4089  -0.3815  -0.3788  -0.2025
     0.7297   0.7326   0.7492   0.7554   0.7804   1.1100   1.8923   2.0007
     2.9297   2.9666   2.9949   3.0067   3.0827   3.3812   4.0259   4.0320
     4.1152   4.1225   4.2306   4.3726   5.1349   5.1352   5.1925   5.2420
     5.4274   5.4971   5.6810   5.8267   6.2231   6.2413   6.2529   6.6359
     6.7188   6.9204   7.0212   7.1092   7.3080   7.4498   7.5173   7.5843
     8.2140   8.3178   8.4824   8.6268   8.7724   8.8118   8.8779   8.9824

          k = 0.0000 0.2500-0.2500 (  9423 PWs)   bands (ev):

    -3.1021  -1.9673  -1.8973  -0.8657  -0.8256  -0.6335   0.2718   0.2828
     0.2980   0.3382   0.3964   0.6538   1.4475   1.4479   1.4997   1.7198
     2.5439   2.5795   2.5922   2.8786   3.5324   3.5737   3.6614   3.7299
     3.7835   3.8572   4.2053   4.7620   4.8701   5.3299   5.6637   5.8029
     5.8644   5.9521   6.0323   6.1539   6.3467   6.4569   6.7139   6.7724
     6.8340   6.9277   6.9354   7.1185   7.2794   7.4647   7.8133   8.1470
     8.2578   8.3519   8.4284   8.5453   8.9137   8.9756   9.0808   9.0817

          k = 0.0000-0.5000 0.0000 (  9370 PWs)   bands (ev):

    -2.8617  -2.7499  -0.6145  -0.5777  -0.5519  -0.5519  -0.5246  -0.5246
    -0.4289  -0.0786   1.6249   1.6585   1.6999   1.7051   1.7365   1.7365
     1.8074   1.8285   1.8285   2.4250   3.8914   3.8914   3.9345   3.9884
     3.9884   4.0345   4.2056   4.3234   5.5505   5.5505   5.5988   5.5988
     5.9833   6.1764   6.1764   6.1809   6.2981   6.2981   6.3244   6.4049
     6.9062   6.9389   6.9492   7.3520   7.5249   7.5543   7.6544   7.6544
     7.6903   7.7231   7.9836   7.9836   9.0767   9.1621   9.1621   9.2123

          k = 0.0000-0.5000 0.2500 (  9398 PWs)   bands (ev):

    -2.7152  -2.6076  -1.5501  -1.4504  -0.4089  -0.3815  -0.3788  -0.2025
     0.7296   0.7325   0.7492   0.7554   0.7804   1.1100   1.8923   2.0007
     2.9297   2.9666   2.9949   3.0067   3.0827   3.3812   4.0259   4.0320
     4.1152   4.1225   4.2306   4.3726   5.1349   5.1352   5.1925   5.2420
     5.4274   5.4971   5.6810   5.8267   6.2231   6.2413   6.2529   6.6359
     6.7188   6.9204   7.0212   7.1092   7.3080   7.4498   7.5173   7.5843
     8.2140   8.3178   8.4824   8.6268   8.7724   8.8118   8.8779   8.9824

          k = 0.0000-0.5000-0.5000 (  9476 PWs)   bands (ev):

    -2.2935  -2.2590  -2.2590  -2.0759  -0.0124   0.0392   0.0448   0.0448
     0.0542   0.0542   0.0549   0.4599   2.2149   2.2749   2.2957   2.3114
     2.3114   2.3834   2.3834   2.6938   4.2321   4.3503   4.3655   4.3690
     4.3690   4.4372   4.5539   4.5539   4.5920   4.5920   4.6287   4.6635
     4.6835   4.7914   4.7914   5.5071   6.0529   6.0889   6.0889   6.4379
     6.4763   6.5758   6.7826   6.7826   7.5690   7.5690   7.6528   8.0643
     8.5883   8.8694   8.8999   8.9069   8.9069   9.0031   9.0031   9.2206

          k = 0.2500 0.0000 0.0000 (  9450 PWs)   bands (ev):

    -3.2480  -2.0771  -0.9695  -0.9695  -0.9395  -0.8293   0.1755   0.1755
     0.1896   0.2157   0.4174   1.2577   1.3598   1.3598   1.5340   2.3755
     2.4031   2.4031   2.4692   2.4976   2.5100   2.5100   2.9662   3.6587
     4.6008   4.6624   4.6624   4.9872   5.2511   5.2511   5.6662   5.6662
     5.7139   5.9199   6.2712   6.2712   6.5093   6.6434   7.1925   7.2390
     7.3921   7.3921   7.5490   7.5870   7.7804   7.8849   7.8849   8.1693
     8.2216   8.2617   8.2943   8.2943   8.3003   8.4631   8.4631   8.8894

          k = 0.2500 0.0000 0.2500 (  9423 PWs)   bands (ev):

    -3.1021  -1.9673  -1.8973  -0.8657  -0.8256  -0.6335   0.2718   0.2828
     0.2980   0.3382   0.3964   0.6538   1.4475   1.4479   1.4997   1.7198
     2.5439   2.5795   2.5922   2.8786   3.5324   3.5737   3.6614   3.7299
     3.7835   3.8572   4.2053   4.7620   4.8701   5.3299   5.6638   5.8029
     5.8644   5.9521   6.0323   6.1539   6.3467   6.4569   6.7139   6.7724
     6.8340   6.9277   6.9354   7.1185   7.2794   7.4647   7.8133   8.1470
     8.2578   8.3519   8.4284   8.5453   8.9137   8.9756   9.0808   9.0817

          k = 0.2500 0.0000-0.5000 (  9398 PWs)   bands (ev):

    -2.7152  -2.6076  -1.5501  -1.4504  -0.4089  -0.3815  -0.3788  -0.2025
     0.7297   0.7326   0.7492   0.7554   0.7804   1.1100   1.8923   2.0007
     2.9297   2.9666   2.9949   3.0067   3.0827   3.3812   4.0259   4.0320
     4.1152   4.1225   4.2306   4.3726   5.1349   5.1352   5.1925   5.2420
     5.4274   5.4971   5.6810   5.8267   6.2231   6.2413   6.2529   6.6359
     6.7188   6.9204   7.0212   7.1092   7.3080   7.4498   7.5173   7.5843
     8.2140   8.3178   8.4824   8.6268   8.7724   8.8118   8.8779   8.9824

          k = 0.2500 0.0000-0.2500 (  9423 PWs)   bands (ev):

    -3.1021  -1.9673  -1.8973  -0.8657  -0.8256  -0.6335   0.2718   0.2828
     0.2980   0.3382   0.3964   0.6538   1.4475   1.4479   1.4997   1.7198
     2.5439   2.5795   2.5922   2.8786   3.5324   3.5737   3.6614   3.7299
     3.7835   3.8572   4.2053   4.7620   4.8701   5.3299   5.6638   5.8029
     5.8644   5.9521   6.0323   6.1539   6.3467   6.4569   6.7139   6.7724
[...]
     6.8186   6.8466   6.9410   7.1155   7.3348   7.5339   7.7825   8.1641
     8.2361   8.3503   8.3584   8.5904   8.9535   8.9870   9.0455   9.0478

          k = 0.2500 0.2500 0.2500 (  9444 PWs)   bands (ev):

    -2.9974  -1.8846  -1.8846  -1.6916  -0.7290  -0.7290  -0.4666   0.4139
     0.4139   0.4880   0.6746   1.5155   1.5155   1.5314   1.6618   1.6618
     2.0095   2.7484   2.7484   2.8637   3.7339   3.7339   3.8474   3.8474
     3.8537   4.1393   4.7802   4.7802   4.8020   4.8909   4.8909   5.0755
     5.0755   5.0993   5.3259   5.9419   5.9419   6.4109   6.9604   6.9905
     6.9905   7.1735   7.2185   7.2371   7.2371   8.0360   8.0940   8.0940
     8.3165   8.3165   8.3666   8.4052   8.4052   8.5299   9.3881   9.3881

          k = 0.2500 0.2500-0.5000 (  9418 PWs)   bands (ev):

    -2.6352  -2.4782  -1.4703  -1.4686  -1.4286  -1.1286  -0.3177  -0.0421
     0.8179   0.8197   0.8570   1.1679   1.9163   1.9307   1.9435   2.0529
     2.1473   2.4246   3.0505   3.1017   3.2558   3.3378   4.0598   4.0798
     4.1190   4.1603   4.3520   4.3803   4.3846   4.6551   5.0862   5.0871
     5.1768   5.3753   5.4821   5.5021   5.5494   5.9740   6.4440   6.4529
     6.5580   6.6815   7.3479   7.3976   7.6748   7.7083   8.3679   8.3910
     8.4203   8.4288   8.6460   8.7110   8.8921   8.9074   9.0806   9.2131

          k = 0.2500 0.2500-0.2500 (  9444 PWs)   bands (ev):

    -2.9974  -1.8846  -1.8846  -1.6916  -0.7290  -0.7290  -0.4666   0.4139
     0.4139   0.4880   0.6746   1.5155   1.5155   1.5314   1.6618   1.6618
     2.0095   2.7484   2.7484   2.8637   3.7339   3.7339   3.8474   3.8474
     3.8537   4.1393   4.7802   4.7802   4.8020   4.8909   4.8909   5.0755
     5.0755   5.0993   5.3259   5.9419   5.9419   6.4109   6.9604   6.9905
     6.9905   7.1735   7.2185   7.2371   7.2371   8.0360   8.0940   8.0940
     8.3165   8.3165   8.3666   8.4052   8.4052   8.5299   9.3881   9.3881

          k = 0.2500-0.5000 0.0000 (  9398 PWs)   bands (ev):

    -2.7817  -2.6159  -1.6140  -1.4361  -0.4763  -0.4463  -0.3571  -0.1958
     0.6643   0.6774   0.6920   0.8012   0.8119   1.1728   1.8885   1.9815
     2.9017   2.9103   3.0135   3.0308   3.0352   3.3806   3.9774   4.0318
     4.0854   4.1733   4.2145   4.3423   5.1515   5.1562   5.1649   5.2040
     5.4904   5.5377   5.6122   5.8401   6.1611   6.1910   6.2406   6.6464
     6.7367   6.9519   7.0428   7.1142   7.3211   7.3944   7.5681   7.6081
     8.1693   8.3533   8.4882   8.5698   8.7396   8.8098   8.9437   9.0224

          k = 0.2500-0.5000 0.2500 (  9418 PWs)   bands (ev):

    -2.6352  -2.4782  -1.4703  -1.4686  -1.4286  -1.1286  -0.3177  -0.0421
     0.8179   0.8197   0.8570   1.1679   1.9163   1.9307   1.9435   2.0529
     2.1473   2.4246   3.0505   3.1017   3.2558   3.3378   4.0598   4.0798
     4.1190   4.1603   4.3520   4.3803   4.3846   4.6551   5.0862   5.0871
     5.1768   5.3753   5.4821   5.5021   5.5494   5.9740   6.4440   6.4529
     6.5580   6.6816   7.3479   7.3976   7.6748   7.7083   8.3679   8.3910
     8.4203   8.4288   8.6460   8.7110   8.8921   8.9074   9.0806   9.2131

          k = 0.2500-0.5000-0.5000 (  9476 PWs)   bands (ev):

    -2.2170  -2.1758  -2.1758  -1.8923  -1.0560  -1.0159  -1.0159  -0.5406
     1.2243   1.2592   1.2592   1.5978   2.3352   2.3515   2.3515   2.3529
     2.3931   2.5660   2.5660   2.8700   3.4398   3.4546   3.4550   3.4550
     3.4962   3.7870   3.7870   3.9792   4.5062   4.5709   4.5709   5.2653
     5.6500   5.6641   5.6641   5.6686   5.6940   5.9294   5.9294   6.3289
     6.7895   6.9478   6.9478   6.9965   7.8962   7.9871   7.9871   8.0191
     8.7940   8.8144   8.8180   8.8180   8.8466   9.1407   9.1407   9.1740

          k = 0.2500-0.5000-0.2500 (  9418 PWs)   bands (ev):

    -2.6352  -2.4782  -1.4703  -1.4686  -1.4286  -1.1286  -0.3177  -0.0421
     0.8179   0.8197   0.8570   1.1679   1.9163   1.9307   1.9435   2.0529
     2.1473   2.4246   3.0505   3.1017   3.2558   3.3378   4.0598   4.0798
     4.1190   4.1603   4.3520   4.3803   4.3846   4.6551   5.0862   5.0871
     5.1768   5.3753   5.4821   5.5021   5.5494   5.9740   6.4440   6.4529
     6.5580   6.6816   7.3479   7.3976   7.6748   7.7083   8.3679   8.3910
     8.4203   8.4288   8.6460   8.7110   8.8921   8.9074   9.0806   9.2131

          k = 0.2500-0.2500 0.0000 (  9423 PWs)   bands (ev):

    -3.1413  -2.0299  -1.9013  -0.8819  -0.8496  -0.6782   0.2238   0.2560
     0.3065   0.3361   0.3460   0.6713   1.4341   1.4393   1.4817   1.7611
     2.5051   2.5397   2.5964   2.8829   3.5260   3.5701   3.6336   3.7300
     3.7713   3.8377   4.3006   4.6971   4.8947   5.3074   5.6407   5.7827
     5.8628   5.9380   6.0628   6.1321   6.2783   6.4874   6.7121   6.7873
     6.8186   6.8466   6.9410   7.1155   7.3348   7.5339   7.7825   8.1641
     8.2361   8.3503   8.3584   8.5904   8.9535   8.9870   9.0455   9.0478

          k = 0.2500-0.2500 0.2500 (  9444 PWs)   bands (ev):

    -2.9974  -1.8846  -1.8846  -1.6916  -0.7290  -0.7290  -0.4666   0.4139
     0.4139   0.4880   0.6746   1.5155   1.5155   1.5314   1.6618   1.6618
     2.0095   2.7484   2.7484   2.8637   3.7339   3.7339   3.8474   3.8474
     3.8537   4.1393   4.7802   4.7802   4.8020   4.8909   4.8909   5.0755
     5.0755   5.0993   5.3259   5.9419   5.9419   6.4109   6.9604   6.9905
     6.9905   7.1735   7.2185   7.2371   7.2371   8.0360   8.0940   8.0940
     8.3165   8.3165   8.3666   8.4052   8.4052   8.5299   9.3881   9.3881

          k = 0.2500-0.2500-0.5000 (  9418 PWs)   bands (ev):

    -2.6352  -2.4782  -1.4703  -1.4686  -1.4286  -1.1286  -0.3177  -0.0421
     0.8179   0.8197   0.8570   1.1679   1.9163   1.9307   1.9435   2.0529
     2.1473   2.4246   3.0505   3.1017   3.2558   3.3378   4.0598   4.0798
     4.1190   4.1603   4.3520   4.3803   4.3846   4.6551   5.0862   5.0871
     5.1768   5.3753   5.4821   5.5021   5.5494   5.9740   6.4440   6.4529
     6.5580   6.6815   7.3479   7.3976   7.6748   7.7083   8.3679   8.3910
     8.4203   8.4288   8.6460   8.7110   8.8921   8.9074   9.0806   9.2131

          k = 0.2500-0.2500-0.2500 (  9444 PWs)   bands (ev):

    -2.9974  -1.8846  -1.8846  -1.6916  -0.7290  -0.7290  -0.4666   0.4139
     0.4139   0.4880   0.6746   1.5155   1.5155   1.5314   1.6618   1.6618
     2.0095   2.7484   2.7484   2.8637   3.7339   3.7339   3.8474   3.8474
     3.8537   4.1393   4.7802   4.7802   4.8020   4.8909   4.8909   5.0755
     5.0755   5.0993   5.3259   5.9419   5.9419   6.4109   6.9604   6.9905
     6.9905   7.1735   7.2185   7.2371   7.2371   8.0360   8.0940   8.0940
     8.3165   8.3165   8.3666   8.4052   8.4052   8.5299   9.3881   9.3881

          k =-0.5000 0.0000 0.0000 (  9370 PWs)   bands (ev):

    -2.9282  -2.7530  -0.6294  -0.6196  -0.6196  -0.5904  -0.5884  -0.4966
    -0.4966   0.0143   1.6365   1.6375   1.6439   1.6644   1.6644   1.6914
     1.8141   1.8761   1.8761   2.4814   3.8501   3.8972   3.8998   3.8998
     3.9494   3.9494   4.3152   4.4361   5.4755   5.4755   5.6516   5.6516
     6.0308   6.1165   6.1822   6.1822   6.2383   6.2383   6.3768   6.4435
     6.8132   6.9572   7.0159   7.3685   7.5169   7.5179   7.5701   7.5848
     7.5848   7.8274   8.0522   8.0522   9.0960   9.1092   9.1092   9.1418

          k =-0.5000 0.0000 0.2500 (  9398 PWs)   bands (ev):

    -2.7817  -2.6159  -1.6140  -1.4361  -0.4763  -0.4463  -0.3571  -0.1958
     0.6643   0.6774   0.6920   0.8012   0.8119   1.1728   1.8885   1.9815
     2.9017   2.9103   3.0135   3.0308   3.0352   3.3806   3.9774   4.0318
     4.0854   4.1733   4.2145   4.3423   5.1515   5.1562   5.1649   5.2040
     5.4904   5.5377   5.6122   5.8401   6.1611   6.1910   6.2407   6.6464
     6.7368   6.9519   7.0428   7.1142   7.3211   7.3944   7.5681   7.6081
     8.1693   8.3533   8.4882   8.5698   8.7396   8.8098   8.9437   9.0224

          k =-0.5000 0.0000-0.5000 (  9476 PWs)   bands (ev):

    -2.3627  -2.3214  -2.3214  -2.0027  -0.0652  -0.0380  -0.0288  -0.0288
     0.0028   0.0028   0.1933   0.6091   2.1960   2.2123   2.2123   2.2142
     2.2543   2.4470   2.4470   2.7786   4.2461   4.2623   4.2973   4.2973
     4.3436   4.4730   4.4730   4.5178   4.5650   4.5835   4.6174   4.6626
     4.6626   4.8848   4.8848   5.6096   5.9789   6.0202   6.0202   6.5332
     6.6168   6.6184   6.7517   6.7517   7.5388   7.5388   7.5805   8.2033
     8.6997   8.8190   8.8354   8.8354   8.9678   9.0251   9.0251   9.2530

          k =-0.5000 0.2500 0.0000 (  9398 PWs)   bands (ev):

    -2.7817  -2.6159  -1.6140  -1.4361  -0.4763  -0.4463  -0.3571  -0.1958
     0.6643   0.6774   0.6920   0.8012   0.8119   1.1728   1.8885   1.9815
     2.9017   2.9103   3.0135   3.0308   3.0352   3.3806   3.9774   4.0318
     4.0854   4.1733   4.2145   4.3423   5.1515   5.1562   5.1649   5.2040
     5.4904   5.5377   5.6122   5.8401   6.1611   6.1910   6.2407   6.6464
     6.7368   6.9519   7.0428   7.1142   7.3211   7.3944   7.5681   7.6081
     8.1693   8.3533   8.4882   8.5698   8.7396   8.8098   8.9437   9.0224

          k =-0.5000 0.2500 0.2500 (  9418 PWs)   bands (ev):

    -2.6352  -2.4782  -1.4703  -1.4686  -1.4286  -1.1286  -0.3177  -0.0421
     0.8179   0.8197   0.8570   1.1679   1.9163   1.9307   1.9435   2.0529
     2.1473   2.4246   3.0505   3.1017   3.2558   3.3378   4.0598   4.0798
     4.1190   4.1603   4.3520   4.3803   4.3846   4.6551   5.0862   5.0871
     5.1768   5.3753   5.4821   5.5021   5.5494   5.9740   6.4440   6.4529
     6.5580   6.6815   7.3479   7.3976   7.6748   7.7083   8.3679   8.3910
     8.4203   8.4288   8.6460   8.7110   8.8921   8.9074   9.0806   9.2131

          k =-0.5000 0.2500-0.5000 (  9476 PWs)   bands (ev):

    -2.2170  -2.1758  -2.1758  -1.8923  -1.0560  -1.0159  -1.0159  -0.5406
     1.2243   1.2592   1.2592   1.5978   2.3352   2.3515   2.3515   2.3529
     2.3931   2.5661   2.5661   2.8700   3.4398   3.4546   3.4550   3.4550
     3.4962   3.7870   3.7870   3.9792   4.5062   4.5709   4.5709   5.2653
     5.6500   5.6641   5.6641   5.6686   5.6940   5.9294   5.9294   6.3289
     6.7895   6.9478   6.9478   6.9965   7.8962   7.9871   7.9871   8.0191
     8.7940   8.8144   8.8180   8.8180   8.8466   9.1407   9.1407   9.1740

          k =-0.5000 0.2500-0.2500 (  9418 PWs)   bands (ev):

    -2.6352  -2.4782  -1.4703  -1.4686  -1.4286  -1.1286  -0.3177  -0.0421
     0.8179   0.8197   0.8570   1.1679   1.9163   1.9307   1.9435   2.0529
     2.1473   2.4246   3.0505   3.1017   3.2558   3.3378   4.0598   4.0798
     4.1190   4.1603   4.3520   4.3803   4.3846   4.6551   5.0862   5.0871
     5.1768   5.3753   5.4821   5.5021   5.5494   5.9740   6.4440   6.4529
     6.5580   6.6815   7.3479   7.3976   7.6748   7.7083   8.3679   8.3910
     8.4203   8.4288   8.6460   8.7110   8.8921   8.9074   9.0806   9.2131

          k =-0.5000-0.5000 0.0000 (  9476 PWs)   bands (ev):

    -2.3627  -2.3214  -2.3214  -2.0027  -0.0652  -0.0380  -0.0288  -0.0288
     0.0028   0.0028   0.1933   0.6091   2.1960   2.2123   2.2123   2.2142
     2.2543   2.4470   2.4470   2.7786   4.2461   4.2623   4.2973   4.2973
     4.3436   4.4730   4.4730   4.5178   4.5650   4.5835   4.6174   4.6626
     4.6626   4.8848   4.8848   5.6096   5.9789   6.0202   6.0202   6.5332
     6.6168   6.6184   6.7517   6.7517   7.5388   7.5388   7.5805   8.2033
     8.6997   8.8190   8.8354   8.8354   8.9678   9.0251   9.0251   9.2530

          k =-0.5000-0.5000 0.2500 (  9476 PWs)   bands (ev):

    -2.2170  -2.1758  -2.1758  -1.8923  -1.0560  -1.0159  -1.0159  -0.5406
     1.2243   1.2592   1.2592   1.5978   2.3352   2.3515   2.3515   2.3529
     2.3931   2.5660   2.5660   2.8700   3.4398   3.4546   3.4550   3.4550
     3.4962   3.7870   3.7870   3.9792   4.5062   4.5709   4.5709   5.2653
     5.6500   5.6641   5.6641   5.6686   5.6940   5.9294   5.9294   6.3289
     6.7895   6.9478   6.9478   6.9965   7.8962   7.9871   7.9871   8.0191
     8.7940   8.8144   8.8180   8.8180   8.8466   9.1407   9.1407   9.1740

          k =-0.5000-0.5000-0.5000 (  9448 PWs)   bands (ev):

    -1.7995  -1.7604  -1.7604  -1.7604  -1.7179  -1.7179  -1.7178  -0.9820
     2.7284   2.7284   2.7284   2.7417   2.7488   2.7488   2.7545   2.7545
     2.7545   2.7658   2.7658   2.7658   2.7947   2.7947   2.7947   2.8066
     2.8066   2.8103   2.8103   2.8104   3.3793   3.3793   3.3793   4.3709
     7.0681   7.1024   7.1024   7.1024   7.1027   7.1027   7.1348   7.1348
     7.1348   7.1390   7.1390   7.1390   7.1479   7.1479   7.1479   7.1814
     7.1814   7.4441   7.4441   7.4441   7.8559   7.8559   7.8559   8.2674

     the Fermi energy is     7.8466 ev

!    total energy              =    -129.85160124 Ry
     Harris-Foulkes estimate   =    -129.85160124 Ry
     estimated scf accuracy    <          1.3E-11 Ry

     The total energy is the sum of the following terms:

     one-electron contribution =      85.92629474 Ry
     hartree contribution      =       1.33547359 Ry
     xc contribution           =     -50.24817087 Ry
     ewald contribution        =    -166.87015619 Ry
     smearing contrib. (-TS)   =       0.00495751 Ry

     convergence has been achieved in   9 iterations

     Forces acting on atoms (cartesian axes, Ry/au):

     atom    1 type  1   force =     0.00000013   -0.00000000   -0.00000001
     atom    2 type  1   force =     0.00000009    0.00008173    0.00008160
     atom    3 type  1   force =     0.00002681    0.00000000   -0.00002677
     atom    4 type  1   force =     0.00002691   -0.00002671    0.00000001
     atom    5 type  1   force =     0.00000005   -0.00000003    0.00000003
     atom    6 type  1   force =     0.00000008    0.00008174   -0.00008161
     atom    7 type  1   force =     0.00002681   -0.00000001    0.00002674
     atom    8 type  1   force =    -0.00008154    0.00008172    0.00000002
     atom    9 type  1   force =     0.00000001    0.00000002   -0.00000001
     atom   10 type  1   force =     0.00000008   -0.00008173    0.00008164
     atom   11 type  1   force =    -0.00008145    0.00000002    0.00008159
     atom   12 type  1   force =     0.00002693    0.00002668   -0.00000000
     atom   13 type  1   force =     0.00000008    0.00000005    0.00000003
     atom   14 type  1   force =     0.00000007   -0.00008174   -0.00008165
     atom   15 type  1   force =    -0.00008145    0.00000003   -0.00008161
     atom   16 type  1   force =    -0.00008160   -0.00008174    0.00000003
     atom   17 type  1   force =    -0.00000003   -0.00002669   -0.00002690
     atom   18 type  1   force =    -0.00002690   -0.00000001   -0.00002677
     atom   19 type  1   force =    -0.00002695   -0.00002670   -0.00000001
     atom   20 type  1   force =     0.00000002    0.00000003    0.00000000
     atom   21 type  1   force =    -0.00000003   -0.00002669    0.00002686
     atom   22 type  1   force =    -0.00002688   -0.00000000    0.00002675
     atom   23 type  1   force =     0.00008147    0.00008169    0.00000002
     atom   24 type  1   force =     0.00000000    0.00000003    0.00000000
     atom   25 type  1   force =    -0.00000003    0.00002664   -0.00002692
     atom   26 type  1   force =     0.00008142    0.00000003    0.00008156
     atom   27 type  1   force =    -0.00002696    0.00002667   -0.00000001
     atom   28 type  1   force =    -0.00000006    0.00000002    0.00000004
     atom   29 type  1   force =    -0.00000004    0.00002664    0.00002689
     atom   30 type  1   force =     0.00008143    0.00000002   -0.00008156
     atom   31 type  1   force =     0.00008153   -0.00008170    0.00000002

     Total force =     0.000421     Total SCF correction =     0.000002


     Computing stress (Cartesian axis) and pressure

          total   stress  (Ry/bohr**3)                   (kbar)     P=  -20.16
  -0.00013704  -0.00000000  -0.00000000        -20.16     -0.00     -0.00
  -0.00000000  -0.00013704   0.00000000         -0.00    -20.16      0.00
  -0.00000000   0.00000000  -0.00013704         -0.00      0.00    -20.16


     bfgs converged in   6 scf cycles and   5 bfgs steps
     (criteria: energy <  1.0E-04 Ry, force <  1.0E-03 Ry/Bohr)

     End of BFGS Geometry Optimization

     Final energy   =    -129.8516012387 Ry
Begin final coordinates

ATOMIC_POSITIONS (angstrom)
Al      -0.000001865  -0.000001225  -0.000001187
Al      -0.000001422   1.984052165   1.984052890
Al       2.021466105  -0.000001218   1.956686493
Al       2.021465616   1.956686357  -0.000001251
Al      -0.000001145  -0.000001320   3.978153457
Al      -0.000001371   1.984052053   5.972254522
Al       2.021466049  -0.000001195   5.999621050
Al       1.994099302   1.984052268   3.978153662
Al      -0.000001100   3.978153571  -0.000001381
Al      -0.000001363   5.972255149   1.984052709
Al       1.994098847   3.978153643   1.984053053
Al       2.021465512   5.999621237  -0.000001235
Al      -0.000001402   3.978153529   3.978153566
Al      -0.000001361   5.972255278   5.972254713
Al       1.994098951   3.978153623   5.972254361
Al       1.994099550   5.972255135   3.978153648
Al       3.978154007   1.956686201   1.956687207
Al       5.934841911  -0.000001209   1.956686752
Al       5.934842203   1.956686515  -0.000001219
Al       3.978153677  -0.000001301   3.978153773
Al       3.978153970   1.956686253   5.999620337
Al       5.934841929  -0.000001235   5.999620809
Al       5.962208685   1.984052271   3.978153638
Al       3.978153823   3.978153683  -0.000001195
Al       3.978154010   5.999621452   1.956687247
Al       5.962208990   3.978153620   1.984052992
Al       5.934842300   5.999621033  -0.000001240
Al       3.978154282   3.978153549   3.978153473
Al       3.978154030   5.999621391   5.999620289
Al       5.962208867   3.978153634   5.972254418
Al       5.962208412   5.972255091   3.978153650
End final coordinates



     Writing output data file Al.save

     init_run     :     17.35s CPU     56.05s WALL (       1 calls)
     electrons    :   2662.79s CPU   4515.97s WALL (      10 calls)
     update_pot   :      0.31s CPU      0.37s WALL (       9 calls)
     forces       :      9.51s CPU      9.68s WALL (      10 calls)
     stress       :    263.42s CPU    756.25s WALL (      10 calls)

     Called by init_run:
     wfcinit      :     17.15s CPU     55.48s WALL (       1 calls)
     potinit      :      0.04s CPU      0.11s WALL (       1 calls)

     Called by electrons:
     c_bands      :   2585.24s CPU   4432.93s WALL (      86 calls)
     sum_band     :     74.82s CPU     79.00s WALL (      86 calls)
     v_of_rho     :      0.68s CPU      1.04s WALL (      92 calls)
     mix_rho      :      1.68s CPU      2.23s WALL (      86 calls)

     Called by c_bands:
     init_us_2    :      5.22s CPU      5.95s WALL (    6948 calls)
     cegterg      :   2462.35s CPU   4225.54s WALL (    3096 calls)

     Called by sum_band:

     Called by *egterg:
     h_psi        :   1068.79s CPU   1647.78s WALL (   12033 calls)
     g_psi        :      4.52s CPU      5.80s WALL (    8901 calls)
     cdiaghg      :    991.12s CPU   2001.54s WALL (   11529 calls)

     Called by h_psi:
     h_psi:pot    :   1066.81s CPU   1645.59s WALL (   12033 calls)
     h_psi:calbec :    103.29s CPU    266.32s WALL (   12033 calls)
     vloc_psi     :    932.03s CPU   1340.05s WALL (   12033 calls)
     add_vuspsi   :     31.34s CPU     38.91s WALL (   12033 calls)

     General routines
     calbec       :    206.16s CPU    504.72s WALL (   13833 calls)
     fft          :      5.19s CPU     10.86s WALL (     425 calls)
     fftw         :    975.59s CPU   1385.57s WALL ( 1099896 calls)
     davcio       :      2.73s CPU      6.03s WALL (   10778 calls)

     Parallel routines
     fft_scatter  :    676.79s CPU   1075.88s WALL ( 1100321 calls)

     PWSCF        :     0h49m CPU        1h29m WALL


   This run was terminated on:  18:55:29  18Sep2018            

=------------------------------------------------------------------------------=
   JOB DONE.
=------------------------------------------------------------------------------=
