
     Program PWSCF v.6.1 (svn rev. 13369) starts on 18Sep2018 at 14:21:32 

     This program is part of the open-source Quantum ESPRESSO suite
     for quantum simulation of materials; please cite
         "P. Giannozzi et al., J. Phys.:Condens. Matter 21 395502 (2009);
          URL http://www.quantum-espresso.org", 
     in publications or presentations arising from this work. More details at
     http://www.quantum-espresso.org/quote

     Parallel version (MPI), running on    16 processors
     R & G space division:  proc/nbgrp/npool/nimage =      16
     Waiting for input...
     Reading input from standard input
Warning: card  &IONS ignored
Warning: card  / ignored

     Current dimensions of program PWSCF are:
     Max number of different atomic species (ntypx) = 10
     Max number of k-points (npk) =  40000
     Max angular momentum in pseudopotentials (lmaxx) =  3

     Subspace diagonalization in iterative solution of the eigenvalue problem:
     a serial algorithm will be used


     Parallelization info
     --------------------
     sticks:   dense  smooth     PW     G-vecs:    dense   smooth      PW
     Min         135     135     38                 4713     4713     716
     Max         136     136     39                 4716     4716     718
     Sum        2161    2161    609                75421    75421   11459



     bravais-lattice index     =            0
     lattice parameter (alat)  =      15.0352  a.u.
     unit-cell volume          =    3398.8476 (a.u.)^3
     number of atoms/cell      =           31
     number of atomic types    =            1
     number of electrons       =        93.00
     number of Kohn-Sham states=           56
     kinetic-energy cutoff     =      30.0000  Ry
     charge density cutoff     =     120.0000  Ry
     convergence threshold     =      1.0E-07
     mixing beta               =       0.5000
     number of iterations used =            8  plain     mixing
     Exchange-correlation      =  SLA  PZ   NOGX NOGC ( 1  1  0  0 0 0)

     celldm(1)=  15.035247  celldm(2)=   0.000000  celldm(3)=   0.000000
     celldm(4)=   0.000000  celldm(5)=   0.000000  celldm(6)=   0.000000

     crystal axes: (cart. coord. in units of alat)
               a(1) = (   1.000000   0.000000   0.000000 )  
               a(2) = (   0.000000   1.000000   0.000000 )  
               a(3) = (   0.000000   0.000000   1.000000 )  

     reciprocal axes: (cart. coord. in units 2 pi/alat)
               b(1) = (  1.000000  0.000000  0.000000 )  
               b(2) = (  0.000000  1.000000  0.000000 )  
               b(3) = (  0.000000  0.000000  1.000000 )  


     PseudoPot. # 1 for Al read from file:
     /home/homesoftware/espresso-6.1/qe-6.1/pseudo/Al.pz-vbc.UPF
     MD5 check sum: 614279c88ff8d45c90147292d03ed420
     Pseudo is Norm-conserving, Zval =  3.0
     Generated by new atomic code, or converted to UPF format
     Using radial grid of  171 points,  2 beta functions with: 
                l(1) =   0
                l(2) =   1

     atomic species   valence    mass     pseudopotential
        Al             3.00    26.98154     Al( 1.00)

     No symmetry found



   Cartesian axes

     site n.     atom                  positions (alat units)
         1           Al  tau(   1) = (  -0.0000000  -0.0000000  -0.0000000  )
         2           Al  tau(   2) = (  -0.0000000   0.2501031   0.2501031  )
         3           Al  tau(   3) = (   0.2634045  -0.0000000   0.2365964  )
         4           Al  tau(   4) = (   0.2634045   0.2365964  -0.0000000  )
         5           Al  tau(   5) = (  -0.0000000  -0.0000000   0.4999992  )
         6           Al  tau(   6) = (  -0.0000000   0.2501031   0.7498971  )
         7           Al  tau(   7) = (   0.2634045  -0.0000000   0.7634038  )
         8           Al  tau(   8) = (   0.2498978   0.2501031   0.4999992  )
         9           Al  tau(   9) = (  -0.0000000   0.4999992  -0.0000000  )
        10           Al  tau(  10) = (  -0.0000000   0.7498971   0.2501031  )
        11           Al  tau(  11) = (   0.2498978   0.4999992   0.2501031  )
        12           Al  tau(  12) = (   0.2634045   0.7634038  -0.0000000  )
        13           Al  tau(  13) = (  -0.0000000   0.4999992   0.4999992  )
        14           Al  tau(  14) = (  -0.0000000   0.7498971   0.7498971  )
        15           Al  tau(  15) = (   0.2498978   0.4999992   0.7498971  )
        16           Al  tau(  16) = (   0.2498978   0.7498971   0.4999992  )
        17           Al  tau(  17) = (   0.4999992   0.2365964   0.2365964  )
        18           Al  tau(  18) = (   0.7365956  -0.0000000   0.2365964  )
        19           Al  tau(  19) = (   0.7365956   0.2365964  -0.0000000  )
        20           Al  tau(  20) = (   0.4999992  -0.0000000   0.4999992  )
        21           Al  tau(  21) = (   0.4999992   0.2365964   0.7634037  )
        22           Al  tau(  22) = (   0.7365956  -0.0000000   0.7634037  )
        23           Al  tau(  23) = (   0.7501023   0.2501031   0.4999992  )
        24           Al  tau(  24) = (   0.4999992   0.4999992  -0.0000000  )
        25           Al  tau(  25) = (   0.4999992   0.7634037   0.2365964  )
        26           Al  tau(  26) = (   0.7501023   0.4999992   0.2501031  )
        27           Al  tau(  27) = (   0.7365956   0.7634037  -0.0000000  )
        28           Al  tau(  28) = (   0.4999992   0.4999992   0.4999992  )
        29           Al  tau(  29) = (   0.4999992   0.7634037   0.7634037  )
        30           Al  tau(  30) = (   0.7501023   0.4999992   0.7498971  )
        31           Al  tau(  31) = (   0.7501023   0.7498971   0.4999992  )

     number of k points=    36  Methfessel-Paxton smearing, width (Ry)=  0.0200
                       cart. coord. in units 2pi/alat
        k(    1) = (   0.0000000   0.0000000   0.0000000), wk =   0.0312500
        k(    2) = (   0.0000000   0.0000000   0.2500000), wk =   0.0625000
        k(    3) = (   0.0000000   0.0000000  -0.5000000), wk =   0.0312500
        k(    4) = (   0.0000000   0.2500000   0.0000000), wk =   0.0625000
        k(    5) = (   0.0000000   0.2500000   0.2500000), wk =   0.0625000
        k(    6) = (   0.0000000   0.2500000  -0.5000000), wk =   0.0625000
        k(    7) = (   0.0000000   0.2500000  -0.2500000), wk =   0.0625000
        k(    8) = (   0.0000000  -0.5000000   0.0000000), wk =   0.0312500
        k(    9) = (   0.0000000  -0.5000000   0.2500000), wk =   0.0625000
        k(   10) = (   0.0000000  -0.5000000  -0.5000000), wk =   0.0312500
        k(   11) = (   0.2500000   0.0000000   0.0000000), wk =   0.0625000
        k(   12) = (   0.2500000   0.0000000   0.2500000), wk =   0.0625000
        k(   13) = (   0.2500000   0.0000000  -0.5000000), wk =   0.0625000
        k(   14) = (   0.2500000   0.0000000  -0.2500000), wk =   0.0625000
        k(   15) = (   0.2500000   0.2500000   0.0000000), wk =   0.0625000
        k(   16) = (   0.2500000   0.2500000   0.2500000), wk =   0.0625000
        k(   17) = (   0.2500000   0.2500000  -0.5000000), wk =   0.0625000
        k(   18) = (   0.2500000   0.2500000  -0.2500000), wk =   0.0625000
        k(   19) = (   0.2500000  -0.5000000   0.0000000), wk =   0.0625000
        k(   20) = (   0.2500000  -0.5000000   0.2500000), wk =   0.0625000
        k(   21) = (   0.2500000  -0.5000000  -0.5000000), wk =   0.0625000
        k(   22) = (   0.2500000  -0.5000000  -0.2500000), wk =   0.0625000
        k(   23) = (   0.2500000  -0.2500000   0.0000000), wk =   0.0625000
        k(   24) = (   0.2500000  -0.2500000   0.2500000), wk =   0.0625000
        k(   25) = (   0.2500000  -0.2500000  -0.5000000), wk =   0.0625000
        k(   26) = (   0.2500000  -0.2500000  -0.2500000), wk =   0.0625000
        k(   27) = (  -0.5000000   0.0000000   0.0000000), wk =   0.0312500
        k(   28) = (  -0.5000000   0.0000000   0.2500000), wk =   0.0625000
        k(   29) = (  -0.5000000   0.0000000  -0.5000000), wk =   0.0312500
        k(   30) = (  -0.5000000   0.2500000   0.0000000), wk =   0.0625000
        k(   31) = (  -0.5000000   0.2500000   0.2500000), wk =   0.0625000
        k(   32) = (  -0.5000000   0.2500000  -0.5000000), wk =   0.0625000
        k(   33) = (  -0.5000000   0.2500000  -0.2500000), wk =   0.0625000
        k(   34) = (  -0.5000000  -0.5000000   0.0000000), wk =   0.0312500
        k(   35) = (  -0.5000000  -0.5000000   0.2500000), wk =   0.0625000
        k(   36) = (  -0.5000000  -0.5000000  -0.5000000), wk =   0.0312500

     Dense  grid:    75421 G-vectors     FFT dimensions: (  54,  54,  54)

     Estimated max dynamical RAM per process >       7.96MB

     Estimated total allocated dynamical RAM >     127.33MB

     Initial potential from superposition of free atoms

     starting charge   92.93624, renormalised to   93.00000
     Starting wfc are  124 randomized atomic wfcs

     total cpu time spent up to now is       59.7 secs

     per-process dynamical memory:    37.8 Mb

     Self-consistent Calculation

     iteration #  1     ecut=    30.00 Ry     beta=0.50
     Davidson diagonalization with overlap
     ethr =  1.00E-02,  avg # of iterations =  3.0

     Threshold (ethr) on eigenvalues was too large:
     Diagonalizing with lowered threshold

     Davidson diagonalization with overlap
     ethr =  2.14E-04,  avg # of iterations =  3.1

     total cpu time spent up to now is      153.1 secs

     total energy              =    -129.81637204 Ry
     Harris-Foulkes estimate   =    -129.84756146 Ry
     estimated scf accuracy    <       0.20226331 Ry

     iteration #  2     ecut=    30.00 Ry     beta=0.50
     Davidson diagonalization with overlap
     ethr =  2.17E-04,  avg # of iterations =  1.2

     total cpu time spent up to now is      182.1 secs

     total energy              =    -129.81503480 Ry
     Harris-Foulkes estimate   =    -129.82473420 Ry
     estimated scf accuracy    <       0.04952849 Ry

     iteration #  3     ecut=    30.00 Ry     beta=0.50
     Davidson diagonalization with overlap
     ethr =  5.33E-05,  avg # of iterations =  3.7

     total cpu time spent up to now is      256.2 secs

     total energy              =    -129.80684208 Ry
     Harris-Foulkes estimate   =    -129.83060387 Ry
     estimated scf accuracy    <       0.07681692 Ry

     iteration #  4     ecut=    30.00 Ry     beta=0.50
     Davidson diagonalization with overlap
     ethr =  5.33E-05,  avg # of iterations =  2.6

     total cpu time spent up to now is      308.0 secs

     total energy              =    -129.81926650 Ry
     Harris-Foulkes estimate   =    -129.82210611 Ry
     estimated scf accuracy    <       0.01104814 Ry

     iteration #  5     ecut=    30.00 Ry     beta=0.50
     Davidson diagonalization with overlap
     ethr =  1.19E-05,  avg # of iterations =  2.3

     total cpu time spent up to now is      353.7 secs

     total energy              =    -129.82060098 Ry
     Harris-Foulkes estimate   =    -129.82072584 Ry
     estimated scf accuracy    <       0.00031910 Ry

     iteration #  6     ecut=    30.00 Ry     beta=0.50
     Davidson diagonalization with overlap
     ethr =  3.43E-07,  avg # of iterations =  4.9

     total cpu time spent up to now is      443.0 secs

     total energy              =    -129.82069212 Ry
     Harris-Foulkes estimate   =    -129.82069873 Ry
     estimated scf accuracy    <       0.00002782 Ry

     iteration #  7     ecut=    30.00 Ry     beta=0.50
     Davidson diagonalization with overlap
     ethr =  2.99E-08,  avg # of iterations =  2.5

     total cpu time spent up to now is      493.0 secs

     total energy              =    -129.82069454 Ry
     Harris-Foulkes estimate   =    -129.82069545 Ry
     estimated scf accuracy    <       0.00000288 Ry

     iteration #  8     ecut=    30.00 Ry     beta=0.50
     Davidson diagonalization with overlap
     ethr =  3.10E-09,  avg # of iterations =  3.2

     total cpu time spent up to now is      556.7 secs

     total energy              =    -129.82069515 Ry
     Harris-Foulkes estimate   =    -129.82069548 Ry
     estimated scf accuracy    <       0.00000165 Ry

     iteration #  9     ecut=    30.00 Ry     beta=0.50
     Davidson diagonalization with overlap
     ethr =  1.78E-09,  avg # of iterations =  2.0

     total cpu time spent up to now is      593.6 secs

     total energy              =    -129.82069522 Ry
     Harris-Foulkes estimate   =    -129.82069538 Ry
     estimated scf accuracy    <       0.00000070 Ry

     iteration # 10     ecut=    30.00 Ry     beta=0.50
     Davidson diagonalization with overlap
     ethr =  7.58E-10,  avg # of iterations =  2.0

     total cpu time spent up to now is      630.3 secs

     End of self-consistent calculation

          k = 0.0000 0.0000 0.0000 (  9435 PWs)   bands (ev):

    -3.3862  -1.1103  -1.1103  -1.1103  -1.0378  -1.0378  -0.9607   1.1147
     1.1147   1.1147   1.1219   1.1219   1.1219   1.1756   1.1756   1.3330
     1.3330   1.3330   1.8815   3.2228   3.4061   3.4061   3.4061   3.4975
     3.4975   3.4975   4.0253   5.1221   5.1221   5.1221   6.3686   6.3686
     6.5589   7.0488   7.0488   7.0488   7.1511   7.1511   7.1511   7.2087
     7.2088   7.2088   7.2587   7.2587   7.2587   8.0093   8.0093   8.1996
     8.1996   8.1996   8.4339   8.7211   9.1833   9.1833   9.1833   9.2207

          k = 0.0000 0.0000 0.2500 (  9450 PWs)   bands (ev):

    -3.2402  -2.0698  -0.9663  -0.9663  -0.8961  -0.8627   0.1758   0.1758
     0.1878   0.2626   0.3795   1.2622   1.3628   1.3628   1.5299   2.3808
     2.4124   2.4124   2.4775   2.5109   2.5109   2.5168   2.9162   3.6595
     4.6014   4.6624   4.6624   4.9626   5.2542   5.2542   5.6745   5.6745
     5.7599   5.8641   6.2756   6.2756   6.5102   6.6354   7.1663   7.2787
     7.3968   7.3968   7.5546   7.5854   7.7540   7.8966   7.8967   8.1605
     8.2058   8.2515   8.2945   8.2945   8.3450   8.4568   8.4568   8.8702

          k = 0.0000 0.0000-0.5000 (  9370 PWs)   bands (ev):

    -2.8447  -2.7525  -0.6406  -0.5474  -0.5387  -0.5387  -0.5330  -0.5330
    -0.3683  -0.1295   1.6112   1.6493   1.7192   1.7292   1.7544   1.7544
     1.7974   1.8156   1.8156   2.4115   3.8891   3.8891   3.9739   4.0030
     4.0030   4.0884   4.1510   4.2637   5.5729   5.5729   5.5746   5.5746
     5.9591   6.1742   6.1742   6.1999   6.3060   6.3202   6.3202   6.3906
     6.9205   6.9340   6.9359   7.3465   7.5240   7.5819   7.6382   7.6718
     7.6718   7.7804   7.9636   7.9636   9.0563   9.1758   9.1759   9.1892

          k = 0.0000 0.2500 0.0000 (  9450 PWs)   bands (ev):

    -3.2402  -2.0698  -0.9663  -0.9663  -0.8961  -0.8627   0.1758   0.1758
     0.1878   0.2626   0.3795   1.2622   1.3628   1.3628   1.5299   2.3808
     2.4124   2.4124   2.4775   2.5109   2.5109   2.5167   2.9162   3.6595
     4.6014   4.6624   4.6624   4.9626   5.2542   5.2542   5.6745   5.6745
     5.7599   5.8641   6.2756   6.2756   6.5102   6.6354   7.1663   7.2787
     7.3968   7.3968   7.5546   7.5854   7.7540   7.8966   7.8967   8.1605
     8.2058   8.2515   8.2945   8.2945   8.3450   8.4568   8.4568   8.8559

          k = 0.0000 0.2500 0.2500 (  9423 PWs)   bands (ev):

    -3.0940  -1.9438  -1.9079  -0.8643  -0.8226  -0.6240   0.2674   0.2702
     0.2893   0.3726   0.4125   0.6384   1.4509   1.4517   1.5033   1.7087
     2.5151   2.5977   2.6310   2.8634   3.5349   3.5765   3.6678   3.7300
     3.7839   3.8616   4.1701   4.7847   4.8564   5.3324   5.6685   5.8077
     5.8617   5.9504   6.0230   6.1507   6.3840   6.4415   6.7024   6.7572
     6.8531   6.9036   6.9756   7.1245   7.2625   7.4508   7.8250   8.1300
     8.2591   8.3433   8.4573   8.5200   8.8972   8.9594   9.0632   9.0925

          k = 0.0000 0.2500-0.5000 (  9398 PWs)   bands (ev):

    -2.6986  -2.6087  -1.5357  -1.4562  -0.3964  -0.3904  -0.3619  -0.2086
     0.7195   0.7378   0.7459   0.7527   0.8122   1.0932   1.8917   2.0021
     2.9230   2.9820   2.9826   2.9970   3.1047   3.3906   4.0253   4.0418
     4.0866   4.1372   4.2386   4.3775   5.1225   5.1279   5.1947   5.2534
     5.4084   5.4869   5.7018   5.8220   6.2399   6.2487   6.2669   6.6013
     6.7447   6.8791   7.0443   7.1040   7.3017   7.4703   7.4997   7.5744
     8.2222   8.2994   8.4834   8.6434   8.7576   8.8315   8.8562   8.9698

          k = 0.0000 0.2500-0.2500 (  9423 PWs)   bands (ev):

    -3.0940  -1.9438  -1.9079  -0.8643  -0.8226  -0.6240   0.2674   0.2702
     0.2893   0.3726   0.4125   0.6384   1.4509   1.4517   1.5033   1.7087
     2.5151   2.5977   2.6310   2.8634   3.5349   3.5765   3.6678   3.7300
     3.7839   3.8616   4.1701   4.7847   4.8564   5.3324   5.6685   5.8077
     5.8617   5.9504   6.0230   6.1507   6.3840   6.4415   6.7024   6.7572
     6.8531   6.9036   6.9756   7.1245   7.2625   7.4508   7.8250   8.1300
     8.2591   8.3433   8.4573   8.5200   8.8972   8.9594   9.0632   9.0925

          k = 0.0000-0.5000 0.0000 (  9370 PWs)   bands (ev):

    -2.8447  -2.7525  -0.6405  -0.5474  -0.5387  -0.5387  -0.5330  -0.5330
    -0.3683  -0.1295   1.6112   1.6492   1.7192   1.7292   1.7545   1.7545
     1.7974   1.8155   1.8155   2.4115   3.8891   3.8891   3.9738   4.0030
     4.0030   4.0884   4.1511   4.2637   5.5729   5.5729   5.5746   5.5746
     5.9591   6.1742   6.1742   6.1999   6.3060   6.3202   6.3202   6.3906
     6.9205   6.9340   6.9359   7.3465   7.5241   7.5819   7.6382   7.6718
     7.6719   7.7804   7.9636   7.9636   9.0564   9.1758   9.1762   9.1892

          k = 0.0000-0.5000 0.2500 (  9398 PWs)   bands (ev):

    -2.6985  -2.6087  -1.5356  -1.4562  -0.3964  -0.3904  -0.3619  -0.2086
     0.7195   0.7378   0.7459   0.7527   0.8122   1.0932   1.8917   2.0021
     2.9230   2.9820   2.9826   2.9970   3.1047   3.3906   4.0253   4.0418
     4.0866   4.1372   4.2386   4.3775   5.1225   5.1279   5.1947   5.2534
     5.4084   5.4869   5.7018   5.8220   6.2399   6.2486   6.2669   6.6013
     6.7447   6.8791   7.0443   7.1040   7.3017   7.4703   7.4997   7.5744
     8.2222   8.2994   8.4834   8.6434   8.7575   8.8315   8.8562   8.9698

          k = 0.0000-0.5000-0.5000 (  9476 PWs)   bands (ev):

    -2.2846  -2.2353  -2.2353  -2.1085  -0.0203  -0.0086   0.0561   0.0561
     0.0775   0.0894   0.0894   0.4097   2.2071   2.2794   2.3328   2.3418
     2.3418   2.3602   2.3602   2.6531   4.2170   4.3821   4.3831   4.3831
     4.3868   4.4073   4.5690   4.5690   4.5698   4.5698   4.6237   4.7044
     4.7317   4.7656   4.7656   5.4630   6.0650   6.1225   6.1225   6.3680
     6.4526   6.5583   6.7957   6.7957   7.5820   7.5820   7.6695   8.0067
     8.5384   8.8789   8.8798   8.9368   8.9368   8.9941   8.9941   9.2093

          k = 0.2500 0.0000 0.0000 (  9450 PWs)   bands (ev):

    -3.2402  -2.0698  -0.9663  -0.9663  -0.8961  -0.8627   0.1758   0.1758
     0.1878   0.2626   0.3794   1.2622   1.3628   1.3628   1.5299   2.3808
     2.4123   2.4124   2.4775   2.5109   2.5109   2.5168   2.9162   3.6595
     4.6014   4.6624   4.6624   4.9626   5.2542   5.2542   5.6745   5.6745
     5.7599   5.8641   6.2755   6.2756   6.5102   6.6354   7.1663   7.2787
     7.3968   7.3968   7.5546   7.5854   7.7540   7.8966   7.8967   8.1605
     8.2058   8.2515   8.2945   8.2945   8.3450   8.4568   8.4568   8.8559

          k = 0.2500 0.0000 0.2500 (  9423 PWs)   bands (ev):

    -3.0940  -1.9438  -1.9079  -0.8643  -0.8226  -0.6240   0.2674   0.2702
     0.2893   0.3726   0.4125   0.6385   1.4509   1.4517   1.5033   1.7087
     2.5151   2.5977   2.6310   2.8634   3.5349   3.5765   3.6678   3.7300
     3.7839   3.8616   4.1701   4.7847   4.8564   5.3324   5.6685   5.8077
     5.8617   5.9504   6.0230   6.1507   6.3840   6.4415   6.7024   6.7572
     6.8531   6.9036   6.9755   7.1245   7.2625   7.4508   7.8250   8.1300
     8.2591   8.3433   8.4573   8.5200   8.8972   8.9594   9.0632   9.0925

          k = 0.2500 0.0000-0.5000 (  9398 PWs)   bands (ev):

    -2.6986  -2.6087  -1.5357  -1.4562  -0.3964  -0.3904  -0.3619  -0.2086
     0.7195   0.7378   0.7459   0.7527   0.8122   1.0932   1.8917   2.0021
     2.9230   2.9820   2.9826   2.9970   3.1047   3.3906   4.0253   4.0418
     4.0866   4.1372   4.2386   4.3775   5.1225   5.1279   5.1947   5.2534
     5.4084   5.4869   5.7018   5.8220   6.2399   6.2487   6.2669   6.6013
     6.7447   6.8791   7.0443   7.1040   7.3017   7.4703   7.4997   7.5745
     8.2222   8.2994   8.4834   8.6434   8.7576   8.8315   8.8562   8.9698

          k = 0.2500 0.0000-0.2500 (  9423 PWs)   bands (ev):

    -3.0940  -1.9438  -1.9079  -0.8643  -0.8226  -0.6240   0.2674   0.2702
     0.2893   0.3726   0.4125   0.6385   1.4509   1.4517   1.5033   1.7087
     2.5151   2.5977   2.6310   2.8634   3.5349   3.5765   3.6678   3.7300
     3.7839   3.8616   4.1701   4.7847   4.8564   5.3324   5.6685   5.8077
     5.8617   5.9504   6.0230   6.1507   6.3840   6.4415   6.7024   6.7572
     6.8531   6.9036   6.9755   7.1245   7.2625   7.4508   7.8250   8.1300
     8.2591   8.3433   8.4573   8.5200   8.8972   8.9594   9.0632   9.0925

          k = 0.2500 0.2500 0.0000 (  9423 PWs)   bands (ev):

    -3.0940  -1.9438  -1.9079  -0.8643  -0.8226  -0.6240   0.2674   0.2702
     0.2893   0.3726   0.4125   0.6385   1.4509   1.4517   1.5033   1.7087
     2.5151   2.5977   2.6310   2.8634   3.5349   3.5765   3.6678   3.7300
     3.7839   3.8616   4.1701   4.7847   4.8564   5.3324   5.6685   5.8077
     5.8617   5.9504   6.0230   6.1507   6.3840   6.4415   6.7024   6.7572
     6.8531   6.9036   6.9756   7.1245   7.2625   7.4508   7.8250   8.1300
     8.2591   8.3433   8.4573   8.5200   8.8972   8.9594   9.0632   9.0925

          k = 0.2500 0.2500 0.2500 (  9444 PWs)   bands (ev):

    -2.9483  -1.7991  -1.7991  -1.7531  -0.6419  -0.6419  -0.5866   0.4136
     0.5008   0.5008   0.6430   1.5700   1.5700   1.5886   1.5886   1.7540
     1.9336   2.7534   2.7534   2.8109   3.7770   3.7770   3.8086   3.9249
     3.9249   4.0803   4.7898   4.7899   4.8524   4.8524   4.9833   5.0263
     5.0829   5.0829   5.2877   6.0228   6.0228   6.1958   7.0321   7.0321
     7.0648   7.0861   7.1546   7.2345   7.2345   8.1118   8.1118   8.1502
     8.1595   8.2769   8.2769   8.4648   8.4649   8.5511   9.4058   9.4058

          k = 0.2500 0.2500-0.5000 (  9418 PWs)   bands (ev):

    -2.5526  -2.4652  -1.4523  -1.4074  -1.3184  -1.1958  -0.2322  -0.1644
     0.8389   0.8765   0.9754   1.0985   1.8974   2.0050   2.0299   2.0504
     2.0922   2.4032   3.1071   3.1797   3.2245   3.2611   4.0646   4.1283
     4.2254   4.2260   4.2715   4.3572   4.3658   4.6891   5.1486   5.1538
     5.1985   5.3748   5.4820   5.4872   5.5777   5.7746   6.4449   6.4601
     6.5091   6.6779   7.3961   7.5219   7.5468   7.6744   8.3825   8.3998
     8.4036   8.4193   8.5974   8.7298   8.9113   8.9571   9.0672   9.2385

          k = 0.2500 0.2500-0.2500 (  9444 PWs)   bands (ev):

    -2.9483  -1.7991  -1.7991  -1.7531  -0.6419  -0.6419  -0.5866   0.4136
     0.5008   0.5008   0.6430   1.5700   1.5700   1.5886   1.5886   1.7540
     1.9336   2.7534   2.7534   2.8109   3.7770   3.7770   3.8086   3.9249
     3.9249   4.0803   4.7898   4.7899   4.8524   4.8524   4.9833   5.0263
     5.0829   5.0829   5.2877   6.0228   6.0228   6.1958   7.0321   7.0321
     7.0648   7.0861   7.1546   7.2345   7.2345   8.1118   8.1118   8.1502
     8.1595   8.2769   8.2769   8.4648   8.4649   8.5511   9.4058   9.4058

          k = 0.2500-0.5000 0.0000 (  9398 PWs)   bands (ev):

    -2.6985  -2.6087  -1.5356  -1.4562  -0.3964  -0.3904  -0.3619  -0.2086
     0.7195   0.7378   0.7459   0.7527   0.8122   1.0932   1.8917   2.0021
     2.9230   2.9820   2.9826   2.9970   3.1047   3.3906   4.0253   4.0418
     4.0866   4.1372   4.2386   4.3775   5.1225   5.1279   5.1947   5.2534
     5.4084   5.4869   5.7018   5.8220   6.2399   6.2486   6.2669   6.6013
     6.7447   6.8791   7.0443   7.1040   7.3017   7.4703   7.4997   7.5745
     8.2222   8.2994   8.4834   8.6434   8.7575   8.8315   8.8562   8.9698

          k = 0.2500-0.5000 0.2500 (  9418 PWs)   bands (ev):

    -2.5526  -2.4653  -1.4523  -1.4074  -1.3184  -1.1958  -0.2321  -0.1644
     0.8390   0.8765   0.9754   1.0985   1.8974   2.0050   2.0299   2.0504
     2.0922   2.4032   3.1071   3.1797   3.2245   3.2611   4.0646   4.1283
     4.2254   4.2260   4.2715   4.3572   4.3658   4.6891   5.1485   5.1539
     5.1985   5.3748   5.4820   5.4872   5.5777   5.7746   6.4449   6.4601
     6.5091   6.6779   7.3961   7.5219   7.5468   7.6743   8.3825   8.3998
     8.4036   8.4193   8.5974   8.7298   8.9113   8.9572   9.0672   9.2385

          k = 0.2500-0.5000-0.5000 (  9476 PWs)   bands (ev):

    -2.1411  -2.0903  -2.0903  -1.9746  -0.9670  -0.9284  -0.9284  -0.7905
     1.3079   1.3414   1.3414   1.4261   2.3466   2.4055   2.4714   2.4790
     2.4791   2.4960   2.4960   2.7546   3.4411   3.5794   3.5826   3.5826
     3.5903   3.6341   3.6341   3.8295   4.5925   4.6561   4.6562   5.0043
     5.6575   5.7768   5.7833   5.7833   5.7976   5.8109   5.8109   6.2612
     6.7025   6.9240   6.9701   6.9701   7.7768   8.0274   8.0274   8.0532
     8.7925   8.9285   8.9285   8.9346   8.9428   8.9800   8.9800   9.2446

          k = 0.2500-0.5000-0.2500 (  9418 PWs)   bands (ev):

    -2.5526  -2.4653  -1.4523  -1.4074  -1.3184  -1.1958  -0.2321  -0.1644
     0.8390   0.8765   0.9754   1.0985   1.8974   2.0050   2.0299   2.0504
     2.0922   2.4032   3.1071   3.1797   3.2245   3.2611   4.0646   4.1283
     4.2254   4.2260   4.2715   4.3572   4.3658   4.6891   5.1485   5.1539
     5.1985   5.3748   5.4820   5.4872   5.5777   5.7746   6.4449   6.4601
     6.5091   6.6779   7.3961   7.5219   7.5468   7.6743   8.3825   8.3998
     8.4036   8.4193   8.5974   8.7298   8.9113   8.9572   9.0672   9.2385

          k = 0.2500-0.2500 0.0000 (  9423 PWs)   bands (ev):

    -3.0940  -1.9438  -1.9079  -0.8643  -0.8226  -0.6240   0.2674   0.2702
     0.2893   0.3726   0.4125   0.6384   1.4509   1.4517   1.5033   1.7087
     2.5151   2.5977   2.6310   2.8634   3.5349   3.5765   3.6678   3.7300
     3.7839   3.8616   4.1701   4.7847   4.8564   5.3324   5.6685   5.8077
     5.8617   5.9504   6.0230   6.1507   6.3840   6.4415   6.7024   6.7572
     6.8531   6.9036   6.9756   7.1245   7.2625   7.4508   7.8250   8.1300
     8.2591   8.3433   8.4573   8.5200   8.8972   8.9594   9.0632   9.0925

          k = 0.2500-0.2500 0.2500 (  9444 PWs)   bands (ev):

    -2.9483  -1.7991  -1.7991  -1.7531  -0.6419  -0.6419  -0.5866   0.4136
     0.5008   0.5008   0.6430   1.5700   1.5700   1.5886   1.5886   1.7540
     1.9336   2.7534   2.7534   2.8109   3.7770   3.7770   3.8086   3.9249
     3.9249   4.0803   4.7898   4.7899   4.8524   4.8524   4.9833   5.0263
     5.0829   5.0829   5.2877   6.0228   6.0228   6.1958   7.0321   7.0321
     7.0648   7.0861   7.1546   7.2345   7.2345   8.1118   8.1118   8.1502
     8.1595   8.2769   8.2769   8.4648   8.4649   8.5511   9.4058   9.4058

          k = 0.2500-0.2500-0.5000 (  9418 PWs)   bands (ev):

    -2.5526  -2.4652  -1.4523  -1.4074  -1.3184  -1.1958  -0.2322  -0.1644
     0.8389   0.8765   0.9754   1.0985   1.8974   2.0050   2.0299   2.0504
     2.0922   2.4032   3.1071   3.1797   3.2245   3.2611   4.0646   4.1283
     4.2254   4.2260   4.2715   4.3572   4.3658   4.6891   5.1486   5.1538
     5.1985   5.3748   5.4820   5.4872   5.5777   5.7746   6.4449   6.4601
     6.5091   6.6779   7.3961   7.5219   7.5468   7.6744   8.3825   8.3998
     8.4036   8.4193   8.5974   8.7298   8.9113   8.9571   9.0672   9.2385

          k = 0.2500-0.2500-0.2500 (  9444 PWs)   bands (ev):

    -2.9483  -1.7991  -1.7991  -1.7531  -0.6419  -0.6419  -0.5866   0.4136
     0.5008   0.5008   0.6430   1.5700   1.5700   1.5886   1.5886   1.7540
     1.9336   2.7534   2.7534   2.8109   3.7770   3.7770   3.8086   3.9249
     3.9249   4.0803   4.7898   4.7899   4.8524   4.8524   4.9833   5.0263
     5.0829   5.0829   5.2877   6.0228   6.0228   6.1958   7.0321   7.0321
     7.0648   7.0861   7.1546   7.2345   7.2345   8.1118   8.1118   8.1502
     8.1595   8.2769   8.2769   8.4648   8.4649   8.5511   9.4058   9.4058

          k =-0.5000 0.0000 0.0000 (  9370 PWs)   bands (ev):

    -2.8447  -2.7525  -0.6405  -0.5474  -0.5387  -0.5387  -0.5330  -0.5330
    -0.3683  -0.1295   1.6112   1.6492   1.7192   1.7292   1.7545   1.7545
     1.7975   1.8155   1.8155   2.4115   3.8891   3.8891   3.9739   4.0030
     4.0030   4.0884   4.1510   4.2637   5.5730   5.5730   5.5746   5.5746
     5.9591   6.1742   6.1742   6.1999   6.3060   6.3202   6.3202   6.3906
     6.9205   6.9340   6.9359   7.3465   7.5241   7.5819   7.6382   7.6719
     7.6719   7.7804   7.9636   7.9636   9.0565   9.1758   9.1765   9.1891

          k =-0.5000 0.0000 0.2500 (  9398 PWs)   bands (ev):

    -2.6985  -2.6087  -1.5356  -1.4563  -0.3964  -0.3904  -0.3619  -0.2086
     0.7195   0.7378   0.7458   0.7527   0.8123   1.0932   1.8917   2.0021
     2.9230   2.9820   2.9826   2.9970   3.1047   3.3906   4.0253   4.0418
     4.0866   4.1372   4.2386   4.3775   5.1225   5.1279   5.1947   5.2534
     5.4084   5.4869   5.7018   5.8220   6.2399   6.2486   6.2670   6.6013
     6.7447   6.8790   7.0443   7.1040   7.3017   7.4703   7.4997   7.5744
     8.2222   8.2994   8.4834   8.6434   8.7575   8.8315   8.8562   8.9698

          k =-0.5000 0.0000-0.5000 (  9476 PWs)   bands (ev):

    -2.2846  -2.2353  -2.2353  -2.1085  -0.0203  -0.0086   0.0561   0.0561
     0.0775   0.0894   0.0894   0.4097   2.2071   2.2794   2.3328   2.3418
     2.3418   2.3602   2.3602   2.6531   4.2170   4.3821   4.3831   4.3831
     4.3867   4.4073   4.5690   4.5690   4.5698   4.5698   4.6237   4.7044
     4.7317   4.7656   4.7656   5.4630   6.0650   6.1224   6.1225   6.3680
     6.4526   6.5584   6.7957   6.7957   7.5820   7.5820   7.6695   8.0067
     8.5384   8.8789   8.8798   8.9368   8.9368   8.9941   8.9941   9.2093

          k =-0.5000 0.2500 0.0000 (  9398 PWs)   bands (ev):

    -2.6985  -2.6087  -1.5356  -1.4563  -0.3964  -0.3904  -0.3618  -0.2086
     0.7195   0.7378   0.7458   0.7527   0.8123   1.0932   1.8917   2.0021
     2.9230   2.9820   2.9826   2.9970   3.1047   3.3906   4.0253   4.0418
     4.0866   4.1372   4.2386   4.3775   5.1225   5.1279   5.1947   5.2534
     5.4084   5.4869   5.7018   5.8220   6.2399   6.2486   6.2670   6.6013
     6.7447   6.8790   7.0443   7.1040   7.3017   7.4703   7.4997   7.5745
     8.2222   8.2994   8.4834   8.6434   8.7575   8.8315   8.8562   8.9698

          k =-0.5000 0.2500 0.2500 (  9418 PWs)   bands (ev):

    -2.5526  -2.4653  -1.4523  -1.4074  -1.3184  -1.1958  -0.2321  -0.1644
     0.8390   0.8765   0.9754   1.0985   1.8974   2.0050   2.0299   2.0504
     2.0922   2.4031   3.1071   3.1796   3.2245   3.2611   4.0646   4.1283
     4.2254   4.2260   4.2715   4.3572   4.3658   4.6891   5.1485   5.1539
     5.1985   5.3748   5.4820   5.4872   5.5777   5.7746   6.4449   6.4601
     6.5091   6.6779   7.3961   7.5219   7.5468   7.6743   8.3825   8.3998
     8.4036   8.4193   8.5974   8.7298   8.9113   8.9572   9.0672   9.2385

          k =-0.5000 0.2500-0.5000 (  9476 PWs)   bands (ev):

    -2.1411  -2.0903  -2.0903  -1.9746  -0.9669  -0.9284  -0.9284  -0.7905
     1.3079   1.3414   1.3414   1.4261   2.3466   2.4055   2.4714   2.4790
     2.4790   2.4960   2.4960   2.7546   3.4411   3.5794   3.5826   3.5826
     3.5903   3.6341   3.6342   3.8295   4.5926   4.6561   4.6562   5.0043
     5.6575   5.7767   5.7833   5.7833   5.7976   5.8109   5.8109   6.2612
     6.7025   6.9239   6.9701   6.9701   7.7767   8.0274   8.0274   8.0532
     8.7925   8.9285   8.9285   8.9346   8.9428   8.9800   8.9800   9.2446

          k =-0.5000 0.2500-0.2500 (  9418 PWs)   bands (ev):

    -2.5526  -2.4653  -1.4523  -1.4074  -1.3184  -1.1958  -0.2321  -0.1644
     0.8390   0.8765   0.9754   1.0985   1.8974   2.0050   2.0299   2.0504
     2.0922   2.4031   3.1071   3.1796   3.2245   3.2611   4.0646   4.1283
     4.2254   4.2260   4.2715   4.3572   4.3658   4.6891   5.1485   5.1539
     5.1985   5.3748   5.4820   5.4872   5.5777   5.7746   6.4449   6.4601
     6.5091   6.6779   7.3961   7.5219   7.5468   7.6743   8.3825   8.3998
     8.4036   8.4193   8.5974   8.7298   8.9113   8.9572   9.0672   9.2385

          k =-0.5000-0.5000 0.0000 (  9476 PWs)   bands (ev):

    -2.2846  -2.2353  -2.2353  -2.1085  -0.0204  -0.0086   0.0561   0.0561
     0.0775   0.0894   0.0894   0.4097   2.2071   2.2794   2.3328   2.3418
     2.3418   2.3602   2.3602   2.6531   4.2170   4.3821   4.3831   4.3831
     4.3867   4.4072   4.5690   4.5690   4.5698   4.5698   4.6237   4.7044
     4.7317   4.7656   4.7656   5.4630   6.0650   6.1225   6.1225   6.3679
     6.4526   6.5583   6.7957   6.7957   7.5820   7.5820   7.6695   8.0067
     8.5384   8.8789   8.8798   8.9368   8.9368   8.9941   8.9941   9.2093

          k =-0.5000-0.5000 0.2500 (  9476 PWs)   bands (ev):

    -2.1411  -2.0903  -2.0903  -1.9746  -0.9669  -0.9284  -0.9284  -0.7905
     1.3079   1.3414   1.3414   1.4261   2.3466   2.4055   2.4714   2.4790
     2.4790   2.4960   2.4960   2.7546   3.4411   3.5794   3.5826   3.5826
     3.5903   3.6341   3.6341   3.8295   4.5926   4.6561   4.6562   5.0043
     5.6575   5.7768   5.7833   5.7833   5.7976   5.8109   5.8109   6.2612
     6.7025   6.9239   6.9701   6.9701   7.7767   8.0274   8.0274   8.0532
     8.7925   8.9285   8.9285   8.9346   8.9428   8.9800   8.9800   9.2629

          k =-0.5000-0.5000-0.5000 (  9448 PWs)   bands (ev):

    -1.7869  -1.6975  -1.6974  -1.6974  -1.6074  -1.6074  -1.6074  -1.3393
     2.6502   2.6502   2.6779   2.6779   2.6780   2.7554   2.7554   2.7554
     2.7762   2.8438   2.8438   2.9070   2.9070   2.9070   2.9362   2.9362
     2.9363   3.0744   3.0744   3.0744   3.0762   3.0762   3.0763   4.0992
     6.8755   7.1007   7.1008   7.1008   7.2125   7.2125   7.2125   7.2205
     7.2205   7.2219   7.2219   7.2219   7.2790   7.2791   7.2915   7.2915
     7.2915   7.3128   7.3128   7.3128   7.7008   7.7008   7.7008   7.9177

     the Fermi energy is     7.8352 ev

!    total energy              =    -129.82069526 Ry
     Harris-Foulkes estimate   =    -129.82069528 Ry
     estimated scf accuracy    <       0.00000003 Ry

     The total energy is the sum of the following terms:

     one-electron contribution =      87.08020516 Ry
     hartree contribution      =       0.77872687 Ry
     xc contribution           =     -50.22147156 Ry
     ewald contribution        =    -167.46418145 Ry
     smearing contrib. (-TS)   =       0.00602572 Ry

     convergence has been achieved in  10 iterations

     Forces acting on atoms (cartesian axes, Ry/au):

     atom    1 type  1   force =    -0.00000025    0.00000015    0.00000002
     atom    2 type  1   force =    -0.00000036   -0.00402014   -0.00402052
     atom    3 type  1   force =    -0.01865987   -0.00000010    0.01865769
     atom    4 type  1   force =    -0.01866125    0.01865778    0.00000017
     atom    5 type  1   force =    -0.00000067    0.00000004    0.00000103
     atom    6 type  1   force =    -0.00000035   -0.00401985    0.00401911
     atom    7 type  1   force =    -0.01866014   -0.00000023   -0.01865877
     atom    8 type  1   force =     0.00401820   -0.00401999    0.00000124
     atom    9 type  1   force =    -0.00000026    0.00000084   -0.00000036
     atom   10 type  1   force =    -0.00000024    0.00401860   -0.00402033
     atom   11 type  1   force =     0.00401742    0.00000108   -0.00401988
     atom   12 type  1   force =    -0.01866056   -0.01865845    0.00000002
     atom   13 type  1   force =     0.00000026    0.00000154    0.00000166
     atom   14 type  1   force =    -0.00000029    0.00401824    0.00401898
     atom   15 type  1   force =     0.00401716    0.00000117    0.00401851
     atom   16 type  1   force =     0.00401809    0.00401861    0.00000132
     atom   17 type  1   force =     0.00000209    0.01865788    0.01865962
     atom   18 type  1   force =     0.01865872    0.00000026    0.01865855
     atom   19 type  1   force =     0.01865987    0.01865797    0.00000008
     atom   20 type  1   force =     0.00000179    0.00000026    0.00000095
     atom   21 type  1   force =     0.00000210    0.01865817   -0.01866065
     atom   22 type  1   force =     0.01865889    0.00000010   -0.01865955
     atom   23 type  1   force =    -0.00401947   -0.00402073    0.00000124
     atom   24 type  1   force =     0.00000141    0.00000144   -0.00000007
     atom   25 type  1   force =     0.00000172   -0.01865867    0.01865884
     atom   26 type  1   force =    -0.00401876    0.00000096   -0.00402017
     atom   27 type  1   force =     0.01865941   -0.01865897   -0.00000010
     atom   28 type  1   force =     0.00000126    0.00000068    0.00000111
     atom   29 type  1   force =     0.00000179   -0.01865894   -0.01865984
     atom   30 type  1   force =    -0.00401849    0.00000112    0.00401879
     atom   31 type  1   force =    -0.00401923    0.00401919    0.00000133

     Total force =     0.093507     Total SCF correction =     0.000224


     Computing stress (Cartesian axis) and pressure

          total   stress  (Ry/bohr**3)                   (kbar)     P=  -17.87
  -0.00012150   0.00000000  -0.00000000        -17.87      0.00     -0.00
   0.00000000  -0.00012150   0.00000000          0.00    -17.87      0.00
  -0.00000000   0.00000000  -0.00012149         -0.00      0.00    -17.87


     Writing output data file Al.save

     init_run     :     19.57s CPU     59.51s WALL (       1 calls)
     electrons    :    334.60s CPU    570.72s WALL (       1 calls)
     forces       :      0.95s CPU      0.95s WALL (       1 calls)
     stress       :     23.34s CPU     77.40s WALL (       1 calls)

     Called by init_run:
     wfcinit      :     19.42s CPU     59.02s WALL (       1 calls)
     potinit      :      0.02s CPU      0.04s WALL (       1 calls)

     Called by electrons:
     c_bands      :    324.26s CPU    559.47s WALL (      11 calls)
     sum_band     :      9.74s CPU     10.25s WALL (      11 calls)
     v_of_rho     :      0.19s CPU      0.29s WALL (      11 calls)
     mix_rho      :      0.31s CPU      0.50s WALL (      11 calls)

     Called by c_bands:
     init_us_2    :      0.73s CPU      0.95s WALL (     900 calls)
     cegterg      :    308.66s CPU    532.85s WALL (     396 calls)

     Called by sum_band:

     Called by *egterg:
     h_psi        :    144.61s CPU    239.99s WALL (    1523 calls)
     g_psi        :      0.44s CPU      0.55s WALL (    1091 calls)
     cdiaghg      :    122.87s CPU    247.30s WALL (    1451 calls)

     Called by h_psi:
     h_psi:pot    :    144.35s CPU    239.69s WALL (    1523 calls)
     h_psi:calbec :     21.31s CPU     61.85s WALL (    1523 calls)
     vloc_psi     :    118.62s CPU    168.20s WALL (    1523 calls)
     add_vuspsi   :      4.40s CPU      9.63s WALL (    1523 calls)

     General routines
     calbec       :     29.37s CPU     91.34s WALL (    1703 calls)
     fft          :      0.83s CPU      1.43s WALL (      50 calls)
     fftw         :    124.17s CPU    173.90s WALL (  140310 calls)
     davcio       :      0.35s CPU      0.79s WALL (    1402 calls)

     Parallel routines
     fft_scatter  :     86.29s CPU    134.52s WALL (  140360 calls)

     PWSCF        :  6m19.08s CPU    11m49.74s WALL


   This run was terminated on:  14:33:22  18Sep2018            

=------------------------------------------------------------------------------=
   JOB DONE.
=------------------------------------------------------------------------------=
