 vasp.5.4.4.18Apr17-6-g9f103f2a35 (build Mar 11 2020 12:08:48) complex          
  
 executed on             LinuxIFC date 2021.10.19  19:28:08
 running on  128 total cores
 distrk:  each k-point on   32 cores,    4 groups
 distr:  one band on NCORES_PER_BAND=  32 cores,    1 groups


--------------------------------------------------------------------------------------------------------


 INCAR:
 POTCAR:    PAW Ni 02Aug2007                      
 POTCAR:    PAW Ti 03Oct2001                      

 ----------------------------------------------------------------------------- 
|                                                                             |
|           W    W    AA    RRRRR   N    N  II  N    N   GGGG   !!!           |
|           W    W   A  A   R    R  NN   N  II  NN   N  G    G  !!!           |
|           W    W  A    A  R    R  N N  N  II  N N  N  G       !!!           |
|           W WW W  AAAAAA  RRRRR   N  N N  II  N  N N  G  GGG   !            |
|           WW  WW  A    A  R   R   N   NN  II  N   NN  G    G                |
|           W    W  A    A  R    R  N    N  II  N    N   GGGG   !!!           |
|                                                                             |
|      For optimal performance we recommend to set                            |
|        NCORE= 4 - approx SQRT( number of cores)                             |
|      NCORE specifies how many cores store one orbital (NPAR=cpu/NCORE).     |
|      This setting can  greatly improve the performance of VASP for DFT.     |
|      The default,   NCORE=1            might be grossly inefficient         |
|      on modern multi-core architectures or massively parallel machines.     |
|      Do your own testing !!!!                                               |
|      Unfortunately you need to use the default for GW and RPA calculations. |
|      (for HF NCORE is supported but not extensively tested yet)             |
|                                                                             |
 ----------------------------------------------------------------------------- 


 ----------------------------------------------------------------------------- 
|                                                                             |
|           W    W    AA    RRRRR   N    N  II  N    N   GGGG   !!!           |
|           W    W   A  A   R    R  NN   N  II  NN   N  G    G  !!!           |
|           W    W  A    A  R    R  N N  N  II  N N  N  G       !!!           |
|           W WW W  AAAAAA  RRRRR   N  N N  II  N  N N  G  GGG   !            |
|           WW  WW  A    A  R   R   N   NN  II  N   NN  G    G                |
|           W    W  A    A  R    R  N    N  II  N    N   GGGG   !!!           |
|                                                                             |
|      You have enabled k-point parallelism (KPAR>1).                         |
|      This developmental code was originally  written by Paul Kent at ORNL,  |
|      and carefully double checked in Vienna.                                |
|      GW as well as linear response parallelism added by Martijn Marsman     |
|      and Georg Kresse.                                                      |
|      Carefully verify results versus KPAR=1.                                |
|      Report problems to Paul Kent and Vienna.                               |
|                                                                             |
 ----------------------------------------------------------------------------- 

 POTCAR:    PAW Ni 02Aug2007                      
   VRHFIN =Ni:                                                                  
   LEXCH  = CA                                                                  
   EATOM  =  1081.7953 eV,   79.5097 Ry                                         
                                                                                
   TITEL  = PAW Ni 02Aug2007                                                    
   LULTRA =        F    use ultrasoft PP ?                                      
   IUNSCR =        1    unscreen: 0-lin 1-nonlin 2-no                           
   RPACOR =    2.000    partial core radius                                     
   POMASS =   58.690; ZVAL   =   10.000    mass and valenz                      
   RCORE  =    2.300    outmost cutoff radius                                   
   RWIGS  =    2.430; RWIGS  =    1.286    wigner-seitz radius (au A)           
   ENMAX  =  269.618; ENMIN  =  202.214 eV                                      
   RCLOC  =    1.201    cutoff for local pot                                    
   LCOR   =        T    correct aug charges                                     
   LPAW   =        T    paw PP                                                  
   EAUG   =  544.565                                                            
   DEXC   =    0.000                                                            
   RMAX   =    2.357    core radius for proj-oper                               
   RAUG   =    1.300    factor for augmentation sphere                          
   RDEP   =    2.390    radius for radial grids                                 
   RDEPT  =    1.838    core radius for aug-charge                              
                                                                                
   Atomic configuration                                                         
    9 entries                                                                   
     n  l   j            E        occ.                                          
     1  0  0.50     -8166.2395   2.0000                                         
     2  0  0.50      -972.1372   2.0000                                         
     2  1  1.50      -837.5382   6.0000                                         
     3  0  0.50      -105.2012   2.0000                                         
     3  1  1.50       -66.2602   6.0000                                         
     3  2  2.50        -4.9314   9.0000                                         
     4  0  0.50        -4.7253   1.0000                                         
     4  1  1.50        -4.0817   0.0000                                         
     4  3  2.50        -1.3606   0.0000                                         
   Description                                                                  
     l       E           TYP  RCUT    TYP  RCUT                                 
     2     -4.9313510     23  2.300                                             
     2     -6.2919336     23  2.300                                             
     0     -4.7252708     23  2.300                                             
     0      4.6925118     23  2.300                                             
     1     -2.7211652     23  2.300                                             
     1     16.1356593     23  2.300                                             
  local pseudopotential read in
  partial core-charges read in
  partial kinetic energy density read in
  atomic valenz-charges read in
  non local Contribution for L=           2  read in
    real space projection operators read in
  non local Contribution for L=           2  read in
    real space projection operators read in
  non local Contribution for L=           0  read in
    real space projection operators read in
  non local Contribution for L=           0  read in
    real space projection operators read in
  non local Contribution for L=           1  read in
    real space projection operators read in
  non local Contribution for L=           1  read in
    real space projection operators read in
    PAW grid and wavefunctions read in
 
   number of l-projection  operators is LMAX  =           6
   number of lm-projection operators is LMMAX =          18
 
 POTCAR:    PAW Ti 03Oct2001                      
   VRHFIN =Ti: d3 s1                                                            
   LEXCH  = CA                                                                  
   EATOM  =    95.9491 eV,    7.0521 Ry                                         
                                                                                
   TITEL  = PAW Ti 03Oct2001                                                    
   LULTRA =        F    use ultrasoft PP ?                                      
   IUNSCR =        1    unscreen: 0-lin 1-nonlin 2-no                           
   RPACOR =    2.200    partial core radius                                     
   POMASS =   47.880; ZVAL   =    4.000    mass and valenz                      
   RCORE  =    2.800    outmost cutoff radius                                   
   RWIGS  =    2.500; RWIGS  =    1.323    wigner-seitz radius (au A)           
   ENMAX  =  178.520; ENMIN  =  133.890 eV                                      
   RCLOC  =    2.215    cutoff for local pot                                    
   LCOR   =        T    correct aug charges                                     
   LPAW   =        T    paw PP                                                  
   EAUG   =  328.883                                                            
   DEXC   =    0.000                                                            
   RMAX   =    2.868    core radius for proj-oper                               
   RAUG   =    1.300    factor for augmentation sphere                          
   RDEP   =    2.885    radius for radial grids                                 
   RDEPT  =    2.320    core radius for aug-charge                              
                                                                                
   Atomic configuration                                                         
    9 entries                                                                   
     n  l   j            E        occ.                                          
     1  0  0.50     -4841.5915   2.0000                                         
     2  0  0.50      -530.7755   2.0000                                         
     2  1  1.50      -439.8260   6.0000                                         
     3  0  0.50       -58.8300   2.0000                                         
     3  1  1.50       -35.5746   6.0000                                         
     3  2  2.50        -2.0952   3.0000                                         
     4  0  0.50        -3.8733   1.0000                                         
     4  1  1.50        -4.0817   0.0000                                         
     4  3  2.50        -1.3606   0.0000                                         
   Description                                                                  
     l       E           TYP  RCUT    TYP  RCUT                                 
     2     -2.0951798     23  2.800                                             
     2     -0.5857835     23  2.800                                             
     0     -3.8733002     23  2.800                                             
     0     20.4087390     23  2.800                                             
     1     -5.4423304     23  2.800                                             
  local pseudopotential read in
  partial core-charges read in
  partial kinetic energy density read in
  atomic valenz-charges read in
  non local Contribution for L=           2  read in
    real space projection operators read in
  non local Contribution for L=           2  read in
    real space projection operators read in
  non local Contribution for L=           0  read in
    real space projection operators read in
  non local Contribution for L=           0  read in
    real space projection operators read in
  non local Contribution for L=           1  read in
    real space projection operators read in
    PAW grid and wavefunctions read in
 
   number of l-projection  operators is LMAX  =           5
   number of lm-projection operators is LMMAX =          15
 

 ----------------------------------------------------------------------------- 
|                                                                             |
|  ADVICE TO THIS USER RUNNING 'VASP/VAMP'   (HEAR YOUR MASTER'S VOICE ...):  |
|                                                                             |
|      You have a (more or less) 'large supercell' and for larger cells       |
|      it might be more efficient to use real space projection opertators     |
|      So try LREAL= Auto  in the INCAR   file.                               |
|      Mind:          For very  accurate calculation you might also keep the  |
|      reciprocal projection scheme          (i.e. LREAL=.FALSE.)             |
|                                                                             |
 ----------------------------------------------------------------------------- 

  PAW Ni 02Aug2007                      :
 energy of atom  1       EATOM=-1081.7953
 kinetic energy error for atom=    0.0269 (will be added to EATOM!!)
  PAW Ti 03Oct2001                      :
 energy of atom  2       EATOM=  -95.9491
 kinetic energy error for atom=    0.0008 (will be added to EATOM!!)
 
 
 POSCAR: Ni Ti                                   
  positions in cartesian coordinates
  No initial velocities read in
 exchange correlation table for  LEXCH =        2
   RHO(1)=    0.500       N(1)  =     2000
   RHO(2)=  100.500       N(2)  =     4000
 


--------------------------------------------------------------------------------------------------------


 ion  position               nearest neighbor table
   1  0.215  0.007  0.073-  73 2.44 102 2.46  91 2.49  30 2.49  19 2.62 108 2.70  26 2.71  97 2.71
                            98 2.73 104 2.81   7 3.05
   2  0.777  0.989  0.245-  74 2.45 123 2.47  80 2.51  49 2.51 121 2.56 139 2.58 122 2.62  51 2.68
                           141 2.68   8 2.74  20 2.89
   3  0.229  0.020  0.407- 104 2.42  98 2.45  99 2.48  26 2.53 106 2.53  75 2.55  93 2.62 100 2.69
                             9 2.79  28 2.85  21 2.95
   4  0.776  0.983  0.582-  76 2.44  51 2.46 141 2.47 125 2.52 124 2.53 143 2.61  82 2.65 123 2.71
                            53 2.72  22 2.77  10 2.91
   5  0.214  0.012  0.735- 100 2.27  77 2.35  28 2.40 106 2.45  95 2.61  30 2.63 108 2.63 101 2.69
                           102 2.73  23 2.94  11 3.00
   6  0.778  0.991  0.903-  53 2.41  78 2.43 143 2.47 125 2.50  84 2.53 139 2.55 121 2.61  49 2.71
                           126 2.82  12 2.85  24 2.89
   7  0.228  0.274  0.088-  79 2.44 104 2.55  73 2.57 110 2.59  36 2.59 103 2.63 114 2.65 108 2.74
                            32 2.74  13 2.89   1 3.05
   8  0.770  0.226  0.252- 123 2.33  80 2.38 129 2.44 128 2.53 121 2.57  86 2.58  55 2.65  57 2.68
                             2 2.74 127 2.81  14 2.94
   9  0.229  0.263  0.403- 110 2.14 104 2.30  32 2.38 105 2.58  81 2.60  75 2.68 106 2.68 112 2.74
                            34 2.76   3 2.79  15 2.89
  10  0.780  0.238  0.594- 125 2.35 131 2.39  88 2.51  59 2.54  57 2.56  82 2.59 130 2.67 129 2.80
                           123 2.82  16 2.88   4 2.91
  11  0.223  0.275  0.744-  83 2.38 112 2.44 114 2.48 108 2.50  34 2.55 107 2.55  77 2.61 106 2.67
                            17 2.73  36 2.76   5 3.00
  12  0.773  0.238  0.923- 127 2.39 121 2.44  55 2.48  84 2.53 131 2.61 132 2.61  90 2.62  59 2.66
                           125 2.69   6 2.85  18 2.89
  13  0.225  0.525  0.090- 116 2.40 120 2.48  85 2.49  38 2.50 109 2.54  79 2.61  42 2.67 114 2.78
                           110 2.84   7 2.89  19 2.92
  14  0.775  0.483  0.233-  86 2.38  61 2.44 127 2.48 133 2.53 134 2.54  92 2.55 129 2.57  63 2.74
                           135 2.80  20 2.93   8 2.94
  15  0.227  0.513  0.427- 112 2.44 118 2.47 110 2.51 116 2.51  87 2.52  40 2.55  81 2.56 111 2.57
                            38 2.67  21 2.86   9 2.89
  16  0.775  0.488  0.589-  65 2.49 131 2.50  88 2.52 136 2.54 137 2.55  94 2.57 135 2.64  63 2.72
                           129 2.76  10 2.88  22 2.91
  17  0.226  0.514  0.746-  89 2.41 112 2.47 114 2.50  40 2.53 113 2.54 118 2.56  42 2.60  83 2.63
                           120 2.65  11 2.73  23 2.81
  18  0.775  0.490  0.926- 127 2.32 133 2.39  61 2.49  90 2.55  96 2.56 138 2.60 137 2.66 131 2.74
                            65 2.76  24 2.86  12 2.89
  19  0.224  0.780  0.076-  91 2.40 102 2.41 115 2.49 120 2.53  98 2.58  48 2.59   1 2.62  44 2.72
                            85 2.75 116 2.87  13 2.92
  20  0.782  0.738  0.256-  92 2.39  69 2.48 135 2.49  67 2.55 141 2.55 140 2.59  74 2.62 133 2.69
                           139 2.82   2 2.89  14 2.93
  21  0.225  0.762  0.413-  98 2.46 117 2.48  93 2.49 116 2.52  44 2.53 118 2.55  87 2.62  46 2.63
                           100 2.75  15 2.86   3 2.95
  22  0.771  0.741  0.593- 143 2.42 137 2.46 141 2.53  76 2.57  71 2.57 142 2.58  94 2.60 135 2.63
                             4 2.77  69 2.81  16 2.91
  23  0.219  0.758  0.748-  95 2.43 118 2.53 100 2.56  46 2.57  89 2.59  48 2.60 120 2.60 102 2.64
                           119 2.69  17 2.81   5 2.94
  24  0.778  0.739  0.910-  96 2.41 143 2.44 137 2.47  71 2.52 133 2.52 139 2.58  78 2.59  67 2.65
                           144 2.67  18 2.86   6 2.89
  25  0.554  0.019  0.088-  97 2.34 132 2.51 128 2.52 115 2.60 122 2.61  54 2.62 121 2.62  50 2.62
                           126 2.83  31 2.89  43 2.90
  26  0.106  0.989  0.255-  93 2.46  75 2.47  74 2.48  91 2.51   3 2.53  98 2.56  73 2.62 104 2.63
                             1 2.71  32 2.89  44 2.90
  27  0.555  0.012  0.420- 130 2.48 124 2.49  99 2.53 128 2.56 117 2.60 122 2.61  52 2.62  50 2.63
                           123 2.64  45 2.87  33 2.89
  28  0.101  0.976  0.588-   5 2.40 100 2.40  76 2.48  93 2.54  95 2.58  77 2.59  75 2.65 106 2.73
                            46 2.76   3 2.85  34 2.93
  29  0.562  0.021  0.744- 130 2.47 101 2.48 124 2.49 126 2.50 125 2.56  52 2.64 132 2.66 119 2.67
                            54 2.68  35 2.92  47 3.04
  30  0.107  0.997  0.911-  77 2.40   1 2.49 108 2.54  78 2.57  95 2.60  73 2.60 102 2.61   5 2.63
                            36 2.77  91 2.82  48 2.96
  31  0.555  0.271  0.092- 134 2.29 103 2.40 128 2.56  56 2.56 127 2.59 132 2.59  60 2.66  97 2.66
                           138 2.71  37 2.85  25 2.89
  32  0.108  0.241  0.265-  81 2.38   9 2.38  75 2.45 104 2.46 110 2.46  73 2.65  80 2.67   7 2.74
                            79 2.78  38 2.79  26 2.89
  33  0.565  0.265  0.417- 105 2.46 136 2.50 128 2.50 130 2.50 129 2.52  56 2.57  58 2.65 134 2.65
                            99 2.66  39 2.88  27 2.89
  34  0.109  0.232  0.582-  83 2.44  82 2.47  75 2.54 106 2.54  11 2.55  77 2.55 112 2.67  81 2.68
                             9 2.76  28 2.93  40 2.95
  35  0.560  0.276  0.740- 136 2.38 107 2.40 131 2.52  58 2.54 130 2.59 138 2.59 101 2.75  60 2.75
                           132 2.76  41 2.82  29 2.92
  36  0.108  0.238  0.926-  79 2.36  73 2.40 108 2.42  84 2.59   7 2.59  77 2.62 114 2.64  83 2.76
                            11 2.76  30 2.77  42 2.84
  37  0.560  0.520  0.080- 144 2.47 109 2.49 103 2.49 140 2.52 138 2.52 134 2.54  66 2.56 133 2.58
                            62 2.76  43 2.84  31 2.85
  38  0.115  0.485  0.250- 116 2.41 110 2.46  81 2.46  13 2.50  85 2.52  79 2.64  87 2.66  15 2.67
                            32 2.79  86 2.79  44 2.90
  39  0.561  0.516  0.408-  62 2.35 142 2.52 135 2.52 140 2.60 111 2.60 105 2.61 134 2.63 136 2.66
                            64 2.74  45 2.84  33 2.88
  40  0.109  0.489  0.587-  89 2.43  83 2.43 112 2.49  87 2.49  17 2.53  15 2.55  88 2.61  81 2.61
                           118 2.62  46 2.84  34 2.95
  41  0.562  0.522  0.757- 144 2.35 138 2.40 113 2.48 137 2.49  64 2.55  66 2.64 142 2.68  47 2.71
                           136 2.72 107 2.74  35 2.82
  42  0.113  0.487  0.914-  89 2.44  79 2.46 114 2.46 120 2.49  17 2.60  90 2.60  13 2.67  83 2.70
                            85 2.73  36 2.84  48 2.91
  43  0.556  0.767  0.083- 140 2.46  72 2.49 115 2.52 122 2.52 109 2.58  68 2.59 139 2.61 144 2.65
                           126 2.65  37 2.84  25 2.90
  44  0.109  0.737  0.254-  91 2.45  93 2.48  85 2.50  21 2.53 116 2.53  98 2.56  87 2.62  92 2.65
                            19 2.72  26 2.90  38 2.90
  45  0.549  0.761  0.409- 111 2.44 122 2.47  68 2.49 142 2.53 117 2.55 140 2.57  70 2.57 124 2.72
                           141 2.74  39 2.84  27 2.87
  46  0.108  0.737  0.581-  87 2.48 118 2.51  23 2.57  94 2.57  93 2.58  95 2.59 100 2.60  21 2.63
                            89 2.70  28 2.76  40 2.84
  47  0.549  0.755  0.757- 126 2.32 119 2.40 144 2.46 113 2.49  72 2.58  70 2.64 143 2.68 142 2.70
                            41 2.71 124 2.75  29 3.04
  48  0.104  0.739  0.916-  95 2.38 120 2.51  96 2.57  19 2.59  23 2.60  89 2.63  91 2.66 102 2.68
                            85 2.68  42 2.91  30 2.96
  49  0.890  0.010  0.084-  74 2.44 121 2.49 139 2.51  84 2.51   2 2.51  78 2.55  80 2.56  73 2.70
                             6 2.71  67 2.82  55 2.88
  50  0.435  0.986  0.254- 117 2.46  99 2.47  98 2.49  97 2.57 115 2.57 122 2.62  25 2.62 128 2.63
                            27 2.63  56 2.86  68 2.92
  51  0.886  0.016  0.425- 123 2.41   4 2.46  82 2.52 141 2.52  75 2.60  76 2.62  80 2.66  74 2.66
                             2 2.68  57 2.81  69 2.97
  52  0.434  0.987  0.585- 101 2.49 100 2.53 117 2.56 124 2.57 119 2.62  27 2.62 130 2.64  29 2.64
                            99 2.66  70 2.74  58 2.85 106 3.12
  53  0.896  0.013  0.758-  78 2.35   6 2.41  76 2.52 125 2.53  84 2.54  82 2.54  77 2.58 143 2.67
                             4 2.72  71 2.92  59 2.97
  54  0.444  0.984  0.916- 126 2.35 119 2.46  97 2.48 101 2.52 115 2.54 102 2.54 132 2.55  25 2.62
                            29 2.68  60 2.82  72 2.91
  55  0.886  0.261  0.081-  84 2.47  12 2.48 121 2.51  90 2.51  80 2.52 127 2.52   8 2.65  86 2.66
                            79 2.73  61 2.84  49 2.88
  56  0.443  0.237  0.259- 105 2.35  99 2.37 128 2.43  31 2.56  33 2.57 134 2.59 104 2.60 103 2.62
                            97 2.75  50 2.86  62 2.91
  57  0.888  0.261  0.425- 129 2.43  88 2.44 123 2.54  86 2.55  10 2.56  80 2.62  82 2.62  81 2.66
                             8 2.68  51 2.81  63 2.83
  58  0.441  0.237  0.583- 107 2.43 130 2.50  35 2.54 106 2.55 105 2.57  99 2.60 136 2.61 101 2.61
                            33 2.65  52 2.85  64 2.95
  59  0.894  0.272  0.756- 131 2.44  90 2.50  83 2.52  10 2.54  88 2.58  84 2.61 125 2.62  12 2.66
                            82 2.67  65 2.77  53 2.97
  60  0.442  0.230  0.918- 132 2.35  97 2.50 101 2.56 108 2.61 107 2.65  31 2.66 138 2.66 103 2.75
                            35 2.75  54 2.82  66 2.86
  61  0.889  0.509  0.082-  14 2.44  90 2.48  18 2.49 133 2.51 127 2.54  85 2.56  92 2.57  86 2.61
                            96 2.72  55 2.84  67 2.93
  62  0.448  0.491  0.265-  39 2.35 111 2.37 105 2.41 134 2.52 103 2.55 140 2.61 109 2.63 110 2.74
                            37 2.76  68 2.80  56 2.91
  63  0.893  0.509  0.412-  86 2.38  92 2.50  87 2.54  88 2.55 129 2.56  94 2.57 135 2.61  16 2.72
                            14 2.74  57 2.83  69 2.87
  64  0.450  0.495  0.593- 142 2.44 107 2.51 136 2.52 113 2.54  41 2.55 112 2.66  39 2.74 111 2.81
                           105 2.82  70 2.94  58 2.95
  65  0.892  0.512  0.744-  16 2.49  96 2.51  94 2.53  88 2.54  89 2.54 137 2.58 131 2.60  90 2.67
                            18 2.76  59 2.77  71 2.82
  66  0.441  0.479  0.921- 138 2.36 103 2.47 113 2.49 114 2.50  37 2.56 144 2.58  41 2.64 109 2.64
                           107 2.69  60 2.86  72 2.88
  67  0.888  0.764  0.087- 133 2.49 139 2.53  20 2.55  92 2.55  74 2.57  91 2.61  24 2.65  78 2.70
                            96 2.71  49 2.82  61 2.93
  68  0.440  0.733  0.248- 111 2.39 109 2.43  45 2.49 140 2.51  43 2.59 115 2.60 122 2.60 116 2.63
                           117 2.65  62 2.80  50 2.92
  69  0.896  0.760  0.413-  92 2.48  20 2.48  94 2.53 141 2.54  93 2.58 135 2.59  74 2.65  76 2.71
                            22 2.81  63 2.87  51 2.97
  70  0.442  0.750  0.580- 117 2.54 142 2.54  45 2.57 118 2.57 124 2.57 119 2.58  47 2.64 111 2.67
                            52 2.74 113 2.84  64 2.94
  71  0.893  0.758  0.751-  96 2.34  76 2.49  95 2.50  24 2.52 143 2.53 137 2.54  22 2.57  78 2.59
                            94 2.59  65 2.82  53 2.92
  72  0.441  0.731  0.928- 144 2.47 126 2.48 109 2.48  43 2.49 115 2.51 113 2.54  47 2.58 120 2.61
                           119 2.62  66 2.88  54 2.91
  73  0.077  0.116  0.084-  36 2.40   1 2.44   7 2.57  30 2.60  26 2.62  32 2.65  49 2.70  79 2.78
                            84 2.91  91 3.01  80 3.02
  74  0.930  0.906  0.246-  49 2.44   2 2.45  26 2.48  67 2.57  20 2.62  69 2.65  51 2.66  80 2.80
                            91 2.82  93 2.97  92 3.03
  75  0.069  0.104  0.416-  32 2.45  26 2.47  34 2.54   3 2.55  51 2.60  28 2.65   9 2.68  93 2.83
                            82 2.89  81 2.97  80 3.01
  76  0.926  0.894  0.593-   4 2.44  28 2.48  71 2.49  53 2.52  22 2.57  51 2.62  69 2.71  82 2.79
                            94 2.89  95 2.94  93 3.11
  77  0.076  0.107  0.753-   5 2.35  30 2.40  34 2.55  53 2.58  28 2.59  11 2.61  36 2.62  83 2.81
                            82 2.84  95 3.01  84 3.02 108 3.10
  78  0.927  0.903  0.912-  53 2.35   6 2.43  49 2.55  30 2.57  71 2.59  24 2.59  67 2.70  84 2.76
                            95 2.89  96 2.93  91 3.14
  79  0.076  0.359  0.073-  36 2.36   7 2.44  42 2.46  13 2.61  38 2.64  55 2.73  73 2.78  32 2.78
                            90 2.83  85 2.87
  80  0.921  0.148  0.248-   8 2.38   2 2.51  55 2.52  49 2.56  57 2.62  51 2.66  32 2.67  74 2.80
                            86 2.80  75 3.01  73 3.02 123 3.14
  81  0.072  0.363  0.412-  32 2.38  38 2.46  15 2.56   9 2.60  40 2.61  57 2.66  34 2.68  87 2.75
                            86 2.91  88 2.93  75 2.97 110 3.10
  82  0.937  0.139  0.590-  34 2.47  51 2.52  53 2.54  10 2.59  57 2.62   4 2.65  59 2.67  76 2.79
                            77 2.84  75 2.89  88 2.92
  83  0.072  0.351  0.737-  11 2.38  40 2.43  34 2.44  59 2.52  17 2.63  42 2.70  89 2.75  36 2.76
                            77 2.81  88 2.87  90 3.10
  84  0.927  0.144  0.924-  55 2.47  49 2.51  12 2.53   6 2.53  53 2.54  36 2.59  59 2.61  78 2.76
                            90 2.87  73 2.91  77 3.02
  85  0.067  0.606  0.094-  13 2.49  44 2.50  38 2.52  61 2.56  48 2.68  42 2.73  19 2.75  91 2.82
                            92 2.84  79 2.87  96 3.16
  86  0.918  0.392  0.258-  63 2.38  14 2.38  57 2.55   8 2.58  61 2.61  55 2.66  38 2.79  80 2.80
                            92 2.84  81 2.91 129 3.01
  87  0.070  0.602  0.425-  46 2.48  40 2.49  15 2.52  63 2.54  21 2.62  44 2.62  38 2.66  81 2.75
                            94 2.82  93 2.93  92 3.03
  88  0.927  0.391  0.580-  57 2.44  10 2.51  16 2.52  65 2.54  63 2.55  59 2.58  40 2.61  83 2.87
                            94 2.88  82 2.92  81 2.93
  89  0.073  0.591  0.752-  17 2.41  40 2.43  42 2.44  65 2.54  23 2.59  48 2.63  46 2.70  83 2.75
                            95 2.91  96 2.93  94 3.04
  90  0.930  0.395  0.922-  61 2.48  59 2.50  55 2.51  18 2.55  42 2.60  12 2.62  65 2.67  79 2.83
                            84 2.87  96 2.92  83 3.10
  91  0.071  0.853  0.096-  19 2.40  44 2.45   1 2.49  26 2.51  67 2.61  48 2.66  74 2.82  30 2.82
                            85 2.82  73 3.01  78 3.14
  92  0.923  0.640  0.250-  20 2.39  69 2.48  63 2.50  14 2.55  67 2.55  61 2.57  44 2.65  85 2.84
                            86 2.84  74 3.03  87 3.03
  93  0.075  0.858  0.413-  26 2.46  44 2.48  21 2.49  28 2.54  46 2.58  69 2.58   3 2.62  75 2.83
                            87 2.93  74 2.97  76 3.11
  94  0.929  0.643  0.579-  69 2.53  65 2.53  46 2.57  16 2.57  63 2.57  71 2.59  22 2.60  87 2.82
                            88 2.88  76 2.89  89 3.04
  95  0.069  0.843  0.757-  48 2.38  23 2.43  71 2.50  28 2.58  46 2.59  30 2.60   5 2.61  78 2.89
                            89 2.91  76 2.94  77 3.01
  96  0.924  0.648  0.904-  71 2.34  24 2.41  65 2.51  18 2.56  48 2.57  67 2.71  61 2.72  90 2.92
                            78 2.93  89 2.93  85 3.16
  97  0.407  0.097  0.078-  25 2.34  54 2.48  60 2.50  50 2.57  31 2.66   1 2.71 115 2.73  56 2.75
                           104 3.11 103 3.11 108 3.13 132 3.15
  98  0.261  0.892  0.256-   3 2.45  21 2.46  50 2.49  26 2.56  44 2.56  19 2.58   1 2.73 117 2.76
                           115 2.95 116 2.98 104 2.99
  99  0.403  0.111  0.409-  56 2.37  50 2.47   3 2.48  27 2.53  58 2.60  52 2.66  33 2.66 105 2.74
                           104 2.84 117 2.85 106 2.89
 100  0.256  0.904  0.593-   5 2.27  28 2.40  52 2.53  23 2.56  46 2.60 106 2.68   3 2.69  21 2.75
                           118 2.95 117 3.02 119 3.04
 101  0.405  0.099  0.751-  29 2.48  52 2.49  54 2.52  60 2.56  58 2.61   5 2.69  35 2.75 119 2.81
                           107 2.85 108 2.91 106 2.95
 102  0.265  0.897  0.916-  19 2.41   1 2.46  54 2.54  30 2.61  23 2.64  48 2.68   5 2.73 115 2.87
                           119 2.87 120 2.89 108 2.95
 103  0.413  0.369  0.093-  31 2.40  66 2.47  37 2.49  62 2.55  56 2.62   7 2.63 109 2.74  60 2.75
                           110 3.08 134 3.10  97 3.11 114 3.12
 104  0.259  0.153  0.255-   9 2.30   3 2.42  32 2.46   7 2.55  56 2.60  26 2.63 110 2.66   1 2.81
                            99 2.84  98 2.99  97 3.11
 105  0.411  0.351  0.409-  56 2.35  62 2.41  33 2.46  58 2.57   9 2.58  39 2.61  99 2.74 110 2.79
                            64 2.82 111 3.04 112 3.09
 106  0.265  0.139  0.579-   5 2.45   3 2.53  34 2.54  58 2.55  11 2.67 100 2.68   9 2.68  28 2.73
                            99 2.89 101 2.95 112 3.00  52 3.12
 107  0.406  0.348  0.742-  35 2.40  58 2.43  64 2.51  11 2.55  60 2.65  66 2.69  41 2.74 101 2.85
                           112 2.89 113 2.91 114 2.95
 108  0.257  0.153  0.903-  36 2.42  11 2.50  30 2.54  60 2.61   5 2.63   1 2.70   7 2.74 114 2.80
                           101 2.91 102 2.95  77 3.10  97 3.13
 109  0.405  0.606  0.091-  68 2.43  72 2.48  37 2.49  13 2.54  43 2.58  62 2.63  66 2.64 103 2.74
                           115 2.90 116 2.93 120 3.00
 110  0.259  0.384  0.271-   9 2.14  38 2.46  32 2.46  15 2.51   7 2.59 104 2.66  62 2.74 105 2.79
                            13 2.84 116 2.86 103 3.08  81 3.10
 111  0.403  0.614  0.406-  62 2.37  68 2.39  45 2.44  15 2.57  39 2.60  70 2.67 116 2.76  64 2.81
                           117 2.85 118 2.97 105 3.04
 112  0.263  0.400  0.585-  11 2.44  15 2.44  17 2.47  40 2.49  64 2.66  34 2.67   9 2.74 118 2.85
                           107 2.89 106 3.00 105 3.09
 113  0.404  0.600  0.763-  41 2.48  47 2.49  66 2.49  17 2.54  64 2.54  72 2.54  70 2.84 107 2.91
                           119 2.91 120 2.94 118 3.06 144 3.17
 114  0.264  0.398  0.908-  42 2.46  11 2.48  66 2.50  17 2.50  36 2.64   7 2.65  13 2.78 108 2.80
                           120 2.85 107 2.95 103 3.12
 115  0.401  0.858  0.083-  19 2.49  72 2.51  43 2.52  54 2.54  50 2.57  68 2.60  25 2.60  97 2.73
                           102 2.87 109 2.90  98 2.95
 116  0.258  0.632  0.256-  13 2.40  38 2.41  15 2.51  21 2.52  44 2.53  68 2.63 111 2.76 110 2.86
                            19 2.87 109 2.93  98 2.98
 117  0.396  0.861  0.415-  50 2.46  21 2.48  70 2.54  45 2.55  52 2.56  27 2.60  68 2.65  98 2.76
                            99 2.85 111 2.85 100 3.02
 118  0.264  0.649  0.582-  15 2.47  46 2.51  23 2.53  21 2.55  17 2.56  70 2.57  40 2.62 112 2.85
                           100 2.95 111 2.97 113 3.06
 119  0.407  0.855  0.758-  47 2.40  54 2.46  70 2.58  72 2.62  52 2.62  29 2.67  23 2.69 101 2.81
                           102 2.87 113 2.91 126 2.96 100 3.04
 120  0.256  0.644  0.923-  13 2.48  42 2.49  48 2.51  19 2.53  23 2.60  72 2.61  17 2.65 114 2.85
                           102 2.89 113 2.94 109 3.00
 121  0.739  0.105  0.077-  12 2.44  49 2.49  55 2.51   2 2.56   8 2.57   6 2.61  25 2.62 139 2.75
                           132 2.90 127 2.94 128 3.07
 122  0.595  0.890  0.251-  45 2.47  43 2.52  68 2.60  27 2.61  25 2.61   2 2.62  50 2.62 140 2.73
                           128 2.94 141 3.00 139 3.00
 123  0.739  0.106  0.403-   8 2.33  51 2.41   2 2.47  57 2.54  27 2.64   4 2.71  10 2.82 129 2.84
                           128 2.84 141 2.89 130 3.03  80 3.14
 124  0.597  0.903  0.583-  27 2.49  29 2.49   4 2.53  52 2.57  70 2.57  45 2.72  47 2.75 130 2.76
                           141 2.93 142 2.94 143 2.97
 125  0.742  0.109  0.741-  10 2.35   6 2.50   4 2.52  53 2.53  29 2.56  59 2.62  12 2.69 131 2.78
                           130 2.94 143 2.95
 126  0.581  0.887  0.900-  47 2.32  54 2.35  72 2.48  29 2.50  43 2.65   6 2.82  25 2.83 144 2.88
                           143 2.90 119 2.96 132 3.00 139 3.07
 127  0.735  0.361  0.069-  18 2.32  12 2.39  14 2.48  55 2.52  61 2.54  31 2.59   8 2.81 133 2.86
                           138 2.88 134 2.88 121 2.94
 128  0.591  0.145  0.254-  56 2.43  33 2.50  25 2.52   8 2.53  31 2.56  27 2.56  50 2.63 134 2.83
                           123 2.84 122 2.94 121 3.07
 129  0.741  0.354  0.403-  57 2.43   8 2.44  33 2.52  63 2.56  14 2.57  16 2.76  10 2.80 123 2.84
                           134 2.93 135 2.97  86 3.01 136 3.03
 130  0.594  0.143  0.579-  29 2.47  27 2.48  58 2.50  33 2.50  35 2.59  52 2.64  10 2.67 124 2.76
                           136 2.85 125 2.94 123 3.03
 131  0.740  0.351  0.746-  10 2.39  59 2.44  16 2.50  35 2.52  65 2.60  12 2.61  18 2.74 125 2.78
                           136 2.91 137 3.01 138 3.04
 132  0.589  0.148  0.924-  60 2.35  25 2.51  54 2.55  31 2.59  12 2.61  29 2.66  35 2.76 121 2.90
                           138 2.95 126 3.00  97 3.15
 133  0.741  0.611  0.075-  18 2.39  67 2.49  61 2.51  24 2.52  14 2.53  37 2.58  20 2.69 127 2.86
                           139 2.92 144 2.93 140 2.93
 134  0.597  0.392  0.238-  31 2.29  62 2.52  37 2.54  14 2.54  56 2.59  39 2.63  33 2.65 128 2.83
                           127 2.88 129 2.93 140 2.98 103 3.10
 135  0.736  0.611  0.417-  20 2.49  39 2.52  69 2.59  63 2.61  22 2.63  16 2.64 141 2.78  14 2.80
                           142 2.84 129 2.97 140 2.97
 136  0.599  0.392  0.581-  35 2.38  33 2.50  64 2.52  16 2.54  58 2.61  39 2.66  41 2.72 130 2.85
                           131 2.91 142 2.93 129 3.03
 137  0.737  0.612  0.751-  22 2.46  24 2.47  41 2.49  71 2.54  16 2.55  65 2.58  18 2.66 143 2.74
                           144 2.88 131 3.01 142 3.04
 138  0.591  0.405  0.912-  66 2.36  41 2.40  37 2.52  35 2.59  18 2.60  60 2.66 144 2.68  31 2.71
                           127 2.88 132 2.95 131 3.04
 139  0.737  0.865  0.072-  49 2.51  67 2.53   6 2.55   2 2.58  24 2.58  43 2.61 121 2.75  20 2.82
                           133 2.92 122 3.00 126 3.07
 140  0.599  0.652  0.241-  43 2.46  68 2.51  37 2.52  45 2.57  20 2.59  39 2.60  62 2.61 122 2.73
                           133 2.93 135 2.97 134 2.98
 141  0.742  0.855  0.422-   4 2.47  51 2.52  22 2.53  69 2.54  20 2.55   2 2.68  45 2.74 135 2.78
                           123 2.89 124 2.93 122 3.00
 142  0.592  0.645  0.573-  64 2.44  39 2.52  45 2.53  70 2.54  22 2.58  41 2.68  47 2.70 135 2.84
                           136 2.93 124 2.94 137 3.04
 143  0.737  0.851  0.752-  22 2.42  24 2.44   6 2.47  71 2.53   4 2.61  53 2.67  47 2.68 137 2.74
                           126 2.90 125 2.95 124 2.97
 144  0.592  0.639  0.913-  41 2.35  47 2.46  37 2.47  72 2.47  66 2.58  43 2.65  24 2.67 138 2.68
                           126 2.88 137 2.88 133 2.93 113 3.17
 

IMPORTANT INFORMATION: All symmetrisations will be switched off!
NOSYMM: (Re-)initialisation of all symmetry stuff for point group C_1.

 
 
 KPOINTS: KPOINTS created by Atomic Simulation Env

Automatic generation of k-mesh.
 generate k-points for:    3    4    3
Space group operators:
 irot       det(A)        alpha          n_x          n_y          n_z        tau_x        tau_y        tau_z
    1     1.000000     0.000000     1.000000     0.000000     0.000000     0.000000     0.000000     0.000000
 
 Subroutine IBZKPT returns following result:
 ===========================================
 
 Found     19 irreducible k-points:
 
 Following reciprocal coordinates:
            Coordinates               Weight
  0.000000  0.000000  0.000000      1.000000
  0.333333  0.000000  0.000000      2.000000
 -0.000000  0.250000  0.000000      2.000000
  0.333333  0.250000  0.000000      2.000000
 -0.333333  0.250000  0.000000      2.000000
 -0.000000  0.500000  0.000000      1.000000
  0.333333  0.500000  0.000000      2.000000
 -0.000000 -0.000000  0.333333      2.000000
  0.333333 -0.000000  0.333333      2.000000
 -0.333333 -0.000000  0.333333      2.000000
 -0.000000  0.250000  0.333333      2.000000
  0.333333  0.250000  0.333333      2.000000
 -0.333333  0.250000  0.333333      2.000000
 -0.000000  0.500000  0.333333      2.000000
  0.333333  0.500000  0.333333      2.000000
 -0.333333  0.500000  0.333333      2.000000
  0.000000 -0.250000  0.333333      2.000000
  0.333333 -0.250000  0.333333      2.000000
 -0.333333 -0.250000  0.333333      2.000000
 
 Following cartesian coordinates:
            Coordinates               Weight
  0.000000  0.000000  0.000000      1.000000
  0.024293  0.000000  0.000000      2.000000
  0.003102  0.021802  0.000000      2.000000
  0.027395  0.021802  0.000000      2.000000
 -0.021192  0.021802  0.000000      2.000000
  0.006203  0.043604  0.000000      1.000000
  0.030496  0.043604  0.000000      2.000000
  0.000010  0.000001  0.027010      2.000000
  0.024303  0.000001  0.027010      2.000000
 -0.024284  0.000001  0.027010      2.000000
  0.003111  0.021803  0.027010      2.000000
  0.027404  0.021803  0.027010      2.000000
 -0.021182  0.021803  0.027010      2.000000
  0.006213  0.043605  0.027010      2.000000
  0.030506  0.043605  0.027010      2.000000
 -0.018080  0.043605  0.027010      2.000000
 -0.003092 -0.021801  0.027010      2.000000
  0.021201 -0.021801  0.027010      2.000000
 -0.027385 -0.021801  0.027010      2.000000
 


--------------------------------------------------------------------------------------------------------




 Dimension of arrays:
   k-points           NKPTS =     19   k-points in BZ     NKDIM =     19   number of bands    NBANDS=    604
   number of dos      NEDOS =    301   number of ions     NIONS =    144
   non local maximal  LDIM  =      6   non local SUM 2l+1 LMDIM =     18
   total plane-waves  NPLWV = 470400
   max r-space proj   IRMAX =      1   max aug-charges    IRDMAX=   9610
   dimension x,y,z NGX =    84 NGY =   70 NGZ =   80
   dimension x,y,z NGXF=   140 NGYF=  120 NGZF=  126
   support grid    NGXF=   140 NGYF=  120 NGZF=  126
   ions per type =              72  72
   NGX,Y,Z   is equivalent  to a cutoff of  10.08, 10.15, 10.78 a.u.
   NGXF,Y,Z  is equivalent  to a cutoff of  16.79, 17.40, 16.97 a.u.

 SYSTEM =  unknown system                          
 POSCAR =  Ni Ti                                   

 Startparameter for this run:
   NWRITE =      2    write-flag & timer
   PREC   = high      normal or accurate (medium, high low for compatibility)
   ISTART =      0    job   : 0-new  1-cont  2-samecut
   ICHARG =      2    charge: 1-file 2-atom 10-const
   ISPIN  =      1    spin polarized calculation?
   LNONCOLLINEAR =      F non collinear calculations
   LSORBIT =      F    spin-orbit coupling
   INIWAV =      1    electr: 0-lowe 1-rand  2-diag
   LASPH  =      F    aspherical Exc in radial PAW
   METAGGA=      F    non-selfconsistent MetaGGA calc.

 Electronic Relaxation 1
   ENCUT  =  337.0 eV  24.77 Ry    4.98 a.u.  20.75 17.16 18.47*2*pi/ulx,y,z
   ENINI  =  337.0     initial cutoff
   ENAUG  =  544.6 eV  augmentation charge cutoff
   NELM   =     60;   NELMIN=  2; NELMDL= -5     # of ELM steps 
   EDIFF  = 0.1E-03   stopping-criterion for ELM
   LREAL  =      F    real-space projection
   NLSPLINE    = F    spline interpolate recip. space projectors
   LCOMPAT=      F    compatible to vasp.4.4
   GGA_COMPAT  = T    GGA compatible to vasp.4.4-vasp.4.6
   LMAXPAW     = -100 max onsite density
   LMAXMIX     =    2 max onsite mixed and CHGCAR
   VOSKOWN=      0    Vosko Wilk Nusair interpolation
   ROPT   =    0.00000   0.00000
 Ionic relaxation
   EDIFFG = 0.1E-02   stopping-criterion for IOM
   NSW    =      0    number of steps for IOM
   NBLOCK =      1;   KBLOCK =      1    inner block; outer block 
   IBRION =     -1    ionic relax: 0-MD 1-quasi-New 2-CG
   NFREE  =      0    steps in history (QN), initial steepest desc. (CG)
   ISIF   =      2    stress and relaxation
   IWAVPR =     10    prediction:  0-non 1-charg 2-wave 3-comb
   ISYM   =      0    0-nonsym 1-usesym 2-fastsym
   LCORR  =      T    Harris-Foulkes like correction to forces

   POTIM  = 0.5000    time-step for ionic-motion
   TEIN   =    0.0    initial temperature
   TEBEG  =    0.0;   TEEND  =   0.0 temperature during run
   SMASS  =  -3.00    Nose mass-parameter (am)
   estimated Nose-frequenzy (Omega)   =  0.10E-29 period in steps =****** mass=  -0.439E-26a.u.
   SCALEE = 1.0000    scale energy and forces
   NPACO  =    256;   APACO  = 16.0  distance and # of slots for P.C.
   PSTRESS=    0.0 pullay stress

  Mass of Ions in am
   POMASS =  58.69 47.88
  Ionic Valenz
   ZVAL   =  10.00  4.00
  Atomic Wigner-Seitz radii
   RWIGS  =  -1.00 -1.00
  virtual crystal weights 
   VCA    =   1.00  1.00
   NELECT =    1008.0000    total number of electrons
   NUPDOWN=      -1.0000    fix difference up-down

 DOS related values:
   EMIN   =  10.00;   EMAX   =-10.00  energy-range for DOS
   EFERMI =   0.00
   ISMEAR =     1;   SIGMA  =   0.20  broadening in eV -4-tet -1-fermi 0-gaus

 Electronic relaxation 2 (details)
   IALGO  =     38    algorithm
   LDIAG  =      T    sub-space diagonalisation (order eigenvalues)
   LSUBROT=      F    optimize rotation matrix (better conditioning)
   TURBO    =      0    0=normal 1=particle mesh
   IRESTART =      0    0=no restart 2=restart with 2 vectors
   NREBOOT  =      0    no. of reboots
   NMIN     =      0    reboot dimension
   EREF     =   0.00    reference energy to select bands
   IMIX   =      4    mixing-type and parameters
     AMIX     =   0.40;   BMIX     =  1.00
     AMIX_MAG =   1.60;   BMIX_MAG =  1.00
     AMIN     =   0.10
     WC   =   100.;   INIMIX=   1;  MIXPRE=   1;  MAXMIX= -45

 Intra band minimization:
   WEIMIN = 0.0000     energy-eigenvalue tresh-hold
   EBREAK =  0.41E-07  absolut break condition
   DEPER  =   0.30     relativ break condition  

   TIME   =   0.40     timestep for ELM

  volume/ion in A,a.u.               =      13.48        91.00
  Fermi-wavevector in a.u.,A,eV,Ry     =   1.315726  2.486362 23.553536  1.731136
  Thomas-Fermi vector in A             =   2.445889
 
 Write flags
   LWAVE        =      T    write WAVECAR
   LDOWNSAMPLE  =      F    k-point downsampling of WAVECAR
   LCHARG       =      T    write CHGCAR
   LVTOT        =      F    write LOCPOT, total local potential
   LVHAR        =      F    write LOCPOT, Hartree potential only
   LELF         =      F    write electronic localiz. function (ELF)
   LORBIT       =      0    0 simple, 1 ext, 2 COOP (PROOUT), +10 PAW based schemes


 Dipole corrections
   LMONO  =      F    monopole corrections only (constant potential shift)
   LDIPOL =      F    correct potential (dipole corrections)
   IDIPOL =      0    1-x, 2-y, 3-z, 4-all directions 
   EPSILON=  1.0000000 bulk dielectric constant

 Exchange correlation treatment:
   GGA     =    --    GGA type
   LEXCH   =     2    internal setting for exchange type
   VOSKOWN=      0    Vosko Wilk Nusair interpolation
   LHFCALC =     F    Hartree Fock is set to
   LHFONE  =     F    Hartree Fock one center treatment
   AEXX    =    0.0000 exact exchange contribution

 Linear response parameters
   LEPSILON=     F    determine dielectric tensor
   LRPA    =     F    only Hartree local field effects (RPA)
   LNABLA  =     F    use nabla operator in PAW spheres
   LVEL    =     F    velocity operator in full k-point grid
   LINTERFAST=   F  fast interpolation
   KINTER  =     0    interpolate to denser k-point grid
   CSHIFT  =0.1000    complex shift for real part using Kramers Kronig
   OMEGAMAX=  -1.0    maximum frequency
   DEG_THRESHOLD= 0.2000000E-02 threshold for treating states as degnerate
   RTIME   =   -0.100 relaxation time in fs
  (WPLASMAI=    0.000 imaginary part of plasma frequency in eV, 0.658/RTIME)
   DFIELD  = 0.0000000 0.0000000 0.0000000 field for delta impulse in time
 
 Orbital magnetization related:
   ORBITALMAG=     F  switch on orbital magnetization
   LCHIMAG   =     F  perturbation theory with respect to B field
   DQ        =  0.001000  dq finite difference perturbation B field
   LLRAUG    =     F  two centre corrections for induced B field



--------------------------------------------------------------------------------------------------------


 Static calculation
 charge density and potential will be updated during run
 non-spin polarized calculation
 Variant of blocked Davidson
 Davidson routine will perform the subspace rotation
 perform sub-space diagonalisation
    after iterative eigenvector-optimisation
 modified Broyden-mixing scheme, WC =      100.0
 initial mixing is a Kerker type mixing with AMIX =  0.4000 and BMIX =      1.0000
 Hartree-type preconditioning will be used
 using additional bands          100
 reciprocal scheme for non local part
 use partial core corrections
 calculate Harris-corrections to forces 
   (improved forces if not selfconsistent)
 use of overlap-Matrix (Vanderbilt PP)
 Methfessel and Paxton  Order N= 1 SIGMA  =   0.20


--------------------------------------------------------------------------------------------------------


  energy-cutoff  :      337.02
  volume of cell :     1941.73
      direct lattice vectors                 reciprocal lattice vectors
    13.721275072 -1.951960639 -0.004817406     0.072879524  0.000000000  0.000000000
     0.000000000 11.466753760 -0.000423644     0.012406123  0.087208640  0.000000000
     0.000000000  0.000000000 12.341082489     0.000028875  0.000002994  0.081030169

  length of vectors
    13.859421458 11.466753768 12.341082489     0.072879524  0.088086655  0.081030174


 
 k-points in units of 2pi/SCALE and weight: KPOINTS created by Atomic Simulation Env
   0.00000000  0.00000000  0.00000000       0.028
   0.02429317  0.00000000  0.00000000       0.056
   0.00310153  0.02180216  0.00000000       0.056
   0.02739471  0.02180216  0.00000000       0.056
  -0.02119164  0.02180216  0.00000000       0.056
   0.00620306  0.04360432  0.00000000       0.028
   0.03049624  0.04360432  0.00000000       0.056
   0.00000962  0.00000100  0.02701006       0.056
   0.02430280  0.00000100  0.02701006       0.056
  -0.02428355  0.00000100  0.02701006       0.056
   0.00311116  0.02180316  0.02701006       0.056
   0.02740433  0.02180316  0.02701006       0.056
  -0.02118202  0.02180316  0.02701006       0.056
   0.00621269  0.04360532  0.02701006       0.056
   0.03050586  0.04360532  0.02701006       0.056
  -0.01808049  0.04360532  0.02701006       0.056
  -0.00309191 -0.02180116  0.02701006       0.056
   0.02120127 -0.02180116  0.02701006       0.056
  -0.02738508 -0.02180116  0.02701006       0.056
 
 k-points in reciprocal lattice and weights: KPOINTS created by Atomic Simulation Env
   0.00000000  0.00000000  0.00000000       0.028
   0.33333333  0.00000000  0.00000000       0.056
  -0.00000000  0.25000000  0.00000000       0.056
   0.33333333  0.25000000  0.00000000       0.056
  -0.33333333  0.25000000  0.00000000       0.056
  -0.00000000  0.50000000  0.00000000       0.028
   0.33333333  0.50000000  0.00000000       0.056
  -0.00000000 -0.00000000  0.33333333       0.056
   0.33333333 -0.00000000  0.33333333       0.056
  -0.33333333 -0.00000000  0.33333333       0.056
  -0.00000000  0.25000000  0.33333333       0.056
   0.33333333  0.25000000  0.33333333       0.056
  -0.33333333  0.25000000  0.33333333       0.056
  -0.00000000  0.50000000  0.33333333       0.056
   0.33333333  0.50000000  0.33333333       0.056
  -0.33333333  0.50000000  0.33333333       0.056
   0.00000000 -0.25000000  0.33333333       0.056
   0.33333333 -0.25000000  0.33333333       0.056
  -0.33333333 -0.25000000  0.33333333       0.056
 
 position of ions in fractional coordinates (direct lattice) 
   0.21542108  0.00676633  0.07305977
   0.77678749  0.98860642  0.24465077
   0.22895343  0.01952417  0.40747475
   0.77634495  0.98333180  0.58214531
   0.21419149  0.01224494  0.73523285
   0.77763496  0.99083692  0.90297628
   0.22822738  0.27394931  0.08812089
   0.77016026  0.22648974  0.25188229
   0.22911132  0.26304258  0.40331568
   0.78019641  0.23767781  0.59423415
   0.22314092  0.27545401  0.74351062
   0.77280529  0.23792861  0.92323869
   0.22485222  0.52533457  0.09018256
   0.77518514  0.48267321  0.23320291
   0.22670375  0.51328328  0.42669469
   0.77536751  0.48790513  0.58892098
   0.22600960  0.51390921  0.74583903
   0.77459921  0.49004958  0.92583112
   0.22427934  0.77983098  0.07614709
   0.78159031  0.73787406  0.25642815
   0.22541062  0.76159828  0.41281763
   0.77109096  0.74101901  0.59266931
   0.21938085  0.75760979  0.74849056
   0.77789885  0.73903135  0.91009955
   0.55379580  0.01931113  0.08813985
   0.10561103  0.98934083  0.25512054
   0.55501079  0.01208061  0.41957503
   0.10079613  0.97559642  0.58768574
   0.56215072  0.02144126  0.74382679
   0.10670700  0.99692368  0.91135939
   0.55455312  0.27143858  0.09242968
   0.10784436  0.24134725  0.26494664
   0.56474006  0.26545018  0.41729749
   0.10881649  0.23190401  0.58246288
   0.56037764  0.27573075  0.73985744
   0.10829709  0.23820482  0.92648504
   0.55973767  0.52010131  0.07960667
   0.11484550  0.48526151  0.25027328
   0.56089757  0.51602028  0.40815034
   0.10937563  0.48910366  0.58733926
   0.56245995  0.52156951  0.75736821
   0.11275930  0.48659748  0.91445350
   0.55608336  0.76681783  0.08347611
   0.10859371  0.73720338  0.25395203
   0.54887099  0.76101706  0.40920869
   0.10835906  0.73688262  0.58120259
   0.54905609  0.75516013  0.75690757
   0.10354508  0.73867817  0.91555600
   0.88966974  0.01037304  0.08421092
   0.43478932  0.98624644  0.25355503
   0.88553371  0.01638705  0.42474001
   0.43446240  0.98698652  0.58450543
   0.89554382  0.01320365  0.75787295
   0.44363809  0.98447709  0.91576821
   0.88555088  0.26076958  0.08072467
   0.44338569  0.23659831  0.25872501
   0.88775832  0.26148031  0.42509968
   0.44137205  0.23669017  0.58262257
   0.89431851  0.27161157  0.75604893
   0.44236489  0.23039482  0.91828047
   0.88946355  0.50865045  0.08205630
   0.44776485  0.49112402  0.26516245
   0.89321307  0.50888844  0.41186242
   0.44994708  0.49505516  0.59301768
   0.89179596  0.51224445  0.74377586
   0.44062206  0.47925458  0.92129729
   0.88765897  0.76405618  0.08696157
   0.43985268  0.73298131  0.24800057
   0.89590857  0.75957690  0.41254511
   0.44188897  0.74990646  0.57999560
   0.89269335  0.75789187  0.75126255
   0.44113530  0.73058948  0.92788179
   0.07674271  0.11610618  0.08420853
   0.93043631  0.90557203  0.24639991
   0.06854275  0.10382728  0.41585733
   0.92557506  0.89369579  0.59348636
   0.07566465  0.10725574  0.75317090
   0.92690020  0.90309744  0.91168629
   0.07645224  0.35851264  0.07324168
   0.92056029  0.14802473  0.24795728
   0.07189910  0.36296454  0.41189216
   0.93673081  0.13888659  0.59007058
   0.07229355  0.35116030  0.73655561
   0.92719520  0.14384573  0.92387356
   0.06696674  0.60619387  0.09408797
   0.91761677  0.39173331  0.25803290
   0.07029711  0.60249327  0.42465909
   0.92737779  0.39139195  0.57993881
   0.07274246  0.59068575  0.75207000
   0.93019914  0.39476418  0.92190292
   0.07114832  0.85283028  0.09631057
   0.92334965  0.64048816  0.25040078
   0.07534874  0.85831668  0.41255021
   0.92874303  0.64260478  0.57882388
   0.06863074  0.84345122  0.75702522
   0.92374059  0.64761043  0.90360544
   0.40659150  0.09729025  0.07826451
   0.26110453  0.89249757  0.25584284
   0.40256995  0.11052817  0.40918705
   0.25561012  0.90393104  0.59266027
   0.40454162  0.09930201  0.75092931
   0.26469367  0.89740751  0.91605913
   0.41261345  0.36919908  0.09314245
   0.25916863  0.15255374  0.25475909
   0.41121519  0.35051617  0.40920411
   0.26466544  0.13853990  0.57945710
   0.40597285  0.34758847  0.74166880
   0.25664505  0.15261003  0.90271710
   0.40529053  0.60646238  0.09109270
   0.25859663  0.38357784  0.27084085
   0.40292521  0.61439306  0.40551802
   0.26329253  0.39996117  0.58506960
   0.40429687  0.59992181  0.76257558
   0.26439218  0.39762343  0.90757469
   0.40129041  0.85841160  0.08250031
   0.25765197  0.63214694  0.25606929
   0.39595892  0.86144663  0.41451292
   0.26423394  0.64855238  0.58180773
   0.40737993  0.85451788  0.75755676
   0.25634434  0.64393414  0.92291591
   0.73881390  0.10509766  0.07691353
   0.59491216  0.88955677  0.25123838
   0.73934489  0.10575629  0.40296499
   0.59699097  0.90262449  0.58317193
   0.74236401  0.10872917  0.74110755
   0.58101637  0.88728313  0.89963278
   0.73523128  0.36098669  0.06921794
   0.59108141  0.14527256  0.25410130
   0.74137463  0.35371027  0.40319630
   0.59363504  0.14271090  0.57864666
   0.74000601  0.35053743  0.74615578
   0.58871593  0.14827844  0.92422822
   0.74106165  0.61113833  0.07480604
   0.59707388  0.39217094  0.23766152
   0.73629343  0.61136685  0.41735595
   0.59879409  0.39164677  0.58145396
   0.73660592  0.61194258  0.75085503
   0.59089282  0.40516067  0.91231520
   0.73705511  0.86519890  0.07188951
   0.59918816  0.65246327  0.24087593
   0.74175065  0.85473246  0.42248317
   0.59161068  0.64540190  0.57308901
   0.73736530  0.85062290  0.75247644
   0.59177942  0.63882180  0.91290312
 
 position of ions in cartesian coordinates  (Angst):
   2.95585190 -0.34290564  0.90059605
  10.65851476  9.81984777  3.01509443
   3.14153295 -0.22302923  5.02756830
  10.65244255  9.76022889  7.18014675
   2.93898031 -0.27768359  9.07253225
  10.67014322  9.84377018 11.13953883
   3.13157060  2.69581843  1.08629167
  10.56758074  1.09377960  3.10469402
   3.14369951  2.56902822  4.97613691
  10.70528955  1.20248029  7.32963351
   3.06177798  2.72300097  9.17453428
  10.60387397  1.21978330 11.38994117
   3.08525913  5.58497953  1.11164463
  10.63652855  4.02156400  2.87403752
   3.11066457  5.44317618  5.26456483
  10.63903084  4.08120110  7.26398041
   3.10113986  5.45170856  9.20315450
  10.62848889  4.10729073 11.42181906
   3.07739849  8.50434536  0.93832669
  10.72441562  6.93538665  3.16052307
   3.09292109  8.29306728  5.09320787
  10.58035123  6.99194336  7.31015224
   3.01018500  8.25910208  9.23580599
  10.67376412  6.95586260 11.22755312
   7.59878455 -0.85955162  1.08506513
   1.44911803 11.13837914  3.14753569
   7.61545570 -0.94483380  5.17533121
   1.38305139 10.99017384  7.25177935
   7.71342471 -0.85143447  9.17691061
   1.46415606 11.22319048 11.24622506
   7.60917593  2.03005347  1.13789576
   1.47976213  2.55696158  3.26910660
   7.74895371  1.94150145  5.14706970
   1.49310101  2.44678072  7.18760004
   7.68909569  2.06790157  9.12782533
   1.48597413  2.52004435 11.43320564
   7.68031449  4.87128779  0.97951564
   1.57582666  5.34020037  3.08788440
   7.69622985  4.82222748  5.03409629
   1.50077306  5.39493426  7.24766818
   7.71766766  4.88280942  9.34381296
   1.54720139  5.35959177 11.28459667
   7.63017272  7.70745846  1.02718182
   1.49004420  8.24135899  3.13320753
   7.53120977  7.65502069  5.04711164
   1.48682444  8.23813893  7.17183497
   7.53374960  7.58749938  9.33809387
   1.42077055  8.26812476 11.29814041
  12.20740328 -1.61765519  1.03496356
   5.96586384 10.46035344  3.12663120
  12.15065163 -1.54062073  5.23747863
   5.96137807 10.46947785  7.21091858
  12.28800311 -1.59666329  9.34865277
   6.08728026 10.42279228 11.29901672
  12.15088719  1.26162012  0.99185329
   6.08381697  1.84754316  3.19071047
  12.18117615  1.26546106  5.24180275
   6.05618734  1.85252705  7.18796664
  12.27119032  1.36882841  9.32603890
   6.06981030  1.77840183 11.33034643
  12.20457400  4.09637166  1.00816320
   6.14390465  4.75757881  3.27002656
  12.25602219  4.09178174  5.07830953
   6.17384771  4.79839663  7.31610282
  12.23657769  4.13303041  9.17448610
   6.04589651  4.63541735 11.36748012
  12.17981291  7.02856869  1.06860000
   6.03533965  7.54634105  3.05816598
  12.29300797  6.96110301  5.08661549
   6.06328013  7.73644286  7.15532715
  12.24889103  6.94805720  9.26677155
   6.05293874  7.51641096 11.44863110
   1.05300783  1.18156225  1.03880553
  12.76677254  8.56779643  3.03597565
   0.94049387  1.05676910  5.13175540
  12.70006996  8.44110345  7.31942662
   1.03821544  1.08218075  9.29453421
  12.71825257  8.54632326 11.24634789
   1.04902218  3.96174444  0.90336139
  12.63126093 -0.09953428  3.05556376
   0.98654737  4.02168076  5.08269493
  12.85314110 -0.23588329  7.27753819
   0.99195971  3.88555449  9.08939652
  12.72230042 -0.16040501 11.39707219
   0.91886904  6.82035934  1.16056795
  12.59087207  2.70075761  3.17981887
   0.96456593  6.77142476  5.24015900
  12.72480570  2.67779014  7.15243935
   0.99811936  6.63125767  9.28075729
  12.76351828  2.71095157 11.37263164
   0.97624571  9.64031611  1.18787268
  12.66953448  5.54197782  3.08549719
   1.03388084  9.69502827  5.09058951
  12.74353863  5.55572088  7.13856687
   0.94170122  9.53768298  9.34182275
  12.67489871  5.62288409 11.14674491
   5.57895379  0.32195277  0.96386888
   3.58268706  9.72438410  3.15574164
   5.52377306  0.48159855  5.04782494
   3.50729677  9.86621381  7.31245493
   5.55082688  0.34902239  9.26528963
   3.63193468  9.77367925 11.30350593
   5.66158261  3.42810971  1.14733458
   3.55612400  1.24340925  3.14268986
   5.64239671  3.21660671  5.04789224
   3.63154725  1.07198643  7.14979417
   5.57046514  3.19326839  9.15089283
   3.52149739  1.24898059 11.13920515
   5.56110282  6.16304365  1.12197310
   3.54827543  3.89362225  3.34106100
   5.52864770  6.25859975  5.00233005
   3.61270918  4.07231960  7.21895432
   5.54746857  6.08998413  9.40880630
   3.62779780  4.04336686 11.19901196
   5.50621605  9.05989140  1.01584628
   3.53531353  6.74574677  3.15866318
   5.43306127  9.10510020  5.11326567
   3.62562658  6.92101620  7.17858957
   5.58977211  9.00335654  9.34674598
   3.51737123  6.88346015 11.38827367
  10.13746881 -0.23700664  0.94559252
   8.16295342  9.03908330  3.09731081
  10.14475462 -0.23049073  4.96941767
   8.19147735  9.18486984  7.19371461
  10.18618072 -0.20229468  9.14244710
   7.97228537  9.04013609 11.09926747
  10.08831067  2.70420297  0.85052945
   8.11039060  0.51203700  3.13297610
  10.17260517  2.60877448  4.97215740
   8.14542972  0.47767853  7.13820597
  10.15382607  2.57506374  9.20465658
   8.07793328  0.55112206 11.40307775
  10.16831075  5.56124963  0.91935866
   8.19261495  3.33146288  2.92995795
  10.10288462  5.57317736  5.14681817
   8.21621841  3.32209453  7.17272078
  10.10717244  5.57916910  9.26255603
   8.10780287  3.49247808 11.25593891
  10.11333585  8.48232016  0.88327710
   8.22162557  6.31204393  2.96950680
  10.17776474  8.35313857  5.20996425
   8.11765289  6.24586389  7.06941529
  10.11759208  8.31457536  9.28246123
   8.11996818  6.17008211 11.26309127
 


--------------------------------------------------------------------------------------------------------


 k-point  1 :   0.0000 0.0000 0.0000  plane waves:   27303
 k-point  2 :   0.3333 0.0000 0.0000  plane waves:   27279
 k-point  3 :  -0.0000 0.2500 0.0000  plane waves:   27295
 k-point  4 :   0.3333 0.2500 0.0000  plane waves:   27307
 k-point  5 :  -0.3333 0.2500 0.0000  plane waves:   27268
 k-point  6 :  -0.0000 0.5000 0.0000  plane waves:   27334
 k-point  7 :   0.3333 0.5000 0.0000  plane waves:   27302
 k-point  8 :  -0.0000-0.0000 0.3333  plane waves:   27280
 k-point  9 :   0.3333-0.0000 0.3333  plane waves:   27256
 k-point 10 :  -0.3333-0.0000 0.3333  plane waves:   27258
 k-point 11 :  -0.0000 0.2500 0.3333  plane waves:   27274
 k-point 12 :   0.3333 0.2500 0.3333  plane waves:   27282
 k-point 13 :  -0.3333 0.2500 0.3333  plane waves:   27284
 k-point 14 :  -0.0000 0.5000 0.3333  plane waves:   27289
 k-point 15 :   0.3333 0.5000 0.3333  plane waves:   27299
 k-point 16 :  -0.3333 0.5000 0.3333  plane waves:   27299
 k-point 17 :   0.0000-0.2500 0.3333  plane waves:   27275
 k-point 18 :   0.3333-0.2500 0.3333  plane waves:   27283
 k-point 19 :  -0.3333-0.2500 0.3333  plane waves:   27282

 maximum and minimum number of plane-waves per node :       882      826

 maximum number of plane-waves:     27334
 maximum index in each direction: 
   IXMAX=   21   IYMAX=   17   IZMAX=   18
   IXMIN=  -21   IYMIN=  -17   IZMIN=  -18


 parallel 3D FFT for wavefunctions:
    minimum data exchange during FFTs selected (reduces bandwidth)
 parallel 3D FFT for charge:
    minimum data exchange during FFTs selected (reduces bandwidth)


 total amount of memory used by VASP MPI-rank0   222149. kBytes
=======================================================================

   base      :      30000. kBytes
   nonl-proj :       6850. kBytes
   fftplans  :       3077. kBytes
   grid      :       4956. kBytes
   one-center:         77. kBytes
   wavefun   :     177189. kBytes
 
     INWAV:  cpu time    0.0001: real time    0.0003
 Broyden mixing: mesh for mixing (old mesh)
   NGX = 41   NGY = 35   NGZ = 37
  (NGX  =140   NGY  =120   NGZ  =126)
  gives a total of  53095 points

 initial charge density was supplied:
 charge density of overlapping atoms calculated
 number of electron    1008.0000000 magnetization 
 keeping initial charge density in first step


--------------------------------------------------------------------------------------------------------


 Maximum index for augmentation-charges          777 (set IRDMAX)


--------------------------------------------------------------------------------------------------------


 First call to EWALD:  gamma=   0.142
 Maximum number of real-space cells 3x 3x 3
 Maximum number of reciprocal cells 3x 3x 3

    FEWALD:  cpu time    0.0025: real time    0.0025


--------------------------------------- Iteration      1(   1)  ---------------------------------------


    POTLOK:  cpu time    0.0110: real time    0.0172
    SETDIJ:  cpu time    0.0067: real time    0.0068
     EDDAV:  cpu time   21.7233: real time   21.7858
       DOS:  cpu time    0.0098: real time    0.0099
    --------------------------------------------
      LOOP:  cpu time   21.7509: real time   21.8196

 eigenvalue-minimisations  : 22952
 total energy-change (2. order) : 0.6115634E+04  (-0.2894179E+05)
 number of electron    1008.0000000 magnetization 
 augmentation part     1008.0000000 magnetization 

 Free energy of the ion-electron system (eV)
  ---------------------------------------------------
  alpha Z        PSCENC =      4983.58366483
  Ewald energy   TEWEN  =    -66253.72368651
  -Hartree energ DENC   =    -26856.94480755
  -exchange      EXHF   =         0.00000000
  -V(xc)+E(xc)   XCENC  =      -292.03795376
  PAW double counting   =     78341.85720068   -80458.36686316
  entropy T*S    EENTRO =         0.00399580
  eigenvalues    EBANDS =     11855.66130714
  atomic energy  EATOM  =     84795.60080690
  Solvation  Ediel_sol  =         0.00000000
  ---------------------------------------------------
  free energy    TOTEN  =      6115.63366436 eV

  energy without entropy =     6115.62966856  energy(sigma->0) =     6115.63233243


--------------------------------------------------------------------------------------------------------




--------------------------------------- Iteration      1(   2)  ---------------------------------------


     EDDAV:  cpu time   21.5975: real time   21.6618
       DOS:  cpu time    0.0133: real time    0.0133
    --------------------------------------------
      LOOP:  cpu time   21.6108: real time   21.6752

 eigenvalue-minimisations  : 22952
 total energy-change (2. order) :-0.6501875E+04  (-0.6277230E+04)
 number of electron    1008.0000000 magnetization 
 augmentation part     1008.0000000 magnetization 

 Free energy of the ion-electron system (eV)
  ---------------------------------------------------
  alpha Z        PSCENC =      4983.58366483
  Ewald energy   TEWEN  =    -66253.72368651
  -Hartree energ DENC   =    -26856.94480755
  -exchange      EXHF   =         0.00000000
  -V(xc)+E(xc)   XCENC  =      -292.03795376
  PAW double counting   =     78341.85720068   -80458.36686316
  entropy T*S    EENTRO =        -0.00954305
  eigenvalues    EBANDS =      5353.80017304
  atomic energy  EATOM  =     84795.60080690
  Solvation  Ediel_sol  =         0.00000000
  ---------------------------------------------------
  free energy    TOTEN  =      -386.24100859 eV

  energy without entropy =     -386.23146554  energy(sigma->0) =     -386.23782758


--------------------------------------------------------------------------------------------------------




--------------------------------------- Iteration      1(   3)  ---------------------------------------


     EDDAV:  cpu time   25.3543: real time   25.4305
       DOS:  cpu time    0.0144: real time    0.0145
    --------------------------------------------
      LOOP:  cpu time   25.3687: real time   25.4450

 eigenvalue-minimisations  : 28096
 total energy-change (2. order) :-0.8570310E+03  (-0.7957005E+03)
 number of electron    1008.0000000 magnetization 
 augmentation part     1008.0000000 magnetization 

 Free energy of the ion-electron system (eV)
  ---------------------------------------------------
  alpha Z        PSCENC =      4983.58366483
  Ewald energy   TEWEN  =    -66253.72368651
  -Hartree energ DENC   =    -26856.94480755
  -exchange      EXHF   =         0.00000000
  -V(xc)+E(xc)   XCENC  =      -292.03795376
  PAW double counting   =     78341.85720068   -80458.36686316
  entropy T*S    EENTRO =         0.02013289
  eigenvalues    EBANDS =      4496.73946738
  atomic energy  EATOM  =     84795.60080690
  Solvation  Ediel_sol  =         0.00000000
  ---------------------------------------------------
  free energy    TOTEN  =     -1243.27203831 eV

  energy without entropy =    -1243.29217120  energy(sigma->0) =    -1243.27874927


--------------------------------------------------------------------------------------------------------




--------------------------------------- Iteration      1(   4)  ---------------------------------------


     EDDAV:  cpu time   27.7740: real time   27.8583
       DOS:  cpu time    0.0154: real time    0.0155
    --------------------------------------------
      LOOP:  cpu time   27.7895: real time   27.8738

 eigenvalue-minimisations  : 29664
 total energy-change (2. order) :-0.7050039E+02  (-0.6913679E+02)
 number of electron    1008.0000000 magnetization 
 augmentation part     1008.0000000 magnetization 

 Free energy of the ion-electron system (eV)
  ---------------------------------------------------
  alpha Z        PSCENC =      4983.58366483
  Ewald energy   TEWEN  =    -66253.72368651
  -Hartree energ DENC   =    -26856.94480755
  -exchange      EXHF   =         0.00000000
  -V(xc)+E(xc)   XCENC  =      -292.03795376
  PAW double counting   =     78341.85720068   -80458.36686316
  entropy T*S    EENTRO =         0.01584284
  eigenvalues    EBANDS =      4426.24336729
  atomic energy  EATOM  =     84795.60080690
  Solvation  Ediel_sol  =         0.00000000
  ---------------------------------------------------
  free energy    TOTEN  =     -1313.77242845 eV

  energy without entropy =    -1313.78827129  energy(sigma->0) =    -1313.77770939


--------------------------------------------------------------------------------------------------------




--------------------------------------- Iteration      1(   5)  ---------------------------------------


     EDDAV:  cpu time   28.2463: real time   28.3321
       DOS:  cpu time    0.0151: real time    0.0152
    CHARGE:  cpu time    0.4986: real time    0.4998
    MIXING:  cpu time    0.0055: real time    0.0056
    --------------------------------------------
      LOOP:  cpu time   28.7656: real time   28.8527

 eigenvalue-minimisations  : 30624
 total energy-change (2. order) :-0.2052185E+01  (-0.2031612E+01)
 number of electron    1007.9999619 magnetization 
 augmentation part      455.9239583 magnetization 

 Broyden mixing:
  rms(total) = 0.14287E+02    rms(broyden)= 0.14286E+02
  rms(prec ) = 0.15156E+02
  weight for this iteration     100.00

 Free energy of the ion-electron system (eV)
  ---------------------------------------------------
  alpha Z        PSCENC =      4983.58366483
  Ewald energy   TEWEN  =    -66253.72368651
  -Hartree energ DENC   =    -26856.94480755
  -exchange      EXHF   =         0.00000000
  -V(xc)+E(xc)   XCENC  =      -292.03795376
  PAW double counting   =     78341.85720068   -80458.36686316
  entropy T*S    EENTRO =         0.01390456
  eigenvalues    EBANDS =      4424.19312043
  atomic energy  EATOM  =     84795.60080690
  Solvation  Ediel_sol  =         0.00000000
  ---------------------------------------------------
  free energy    TOTEN  =     -1315.82461358 eV

  energy without entropy =    -1315.83851814  energy(sigma->0) =    -1315.82924844


--------------------------------------------------------------------------------------------------------




--------------------------------------- Iteration      1(   6)  ---------------------------------------


    POTLOK:  cpu time    0.0091: real time    0.0129
    SETDIJ:  cpu time    0.0071: real time    0.0071
     EDDAV:  cpu time   25.6698: real time   25.7429
       DOS:  cpu time    0.0163: real time    0.0164
    CHARGE:  cpu time    0.5084: real time    0.5096
    MIXING:  cpu time    0.0048: real time    0.0048
    --------------------------------------------
      LOOP:  cpu time   26.2155: real time   26.2937

 eigenvalue-minimisations  : 26796
 total energy-change (2. order) : 0.1067825E+03  (-0.1191193E+03)
 number of electron    1007.9999521 magnetization 
 augmentation part      532.0704254 magnetization 

 Broyden mixing:
  rms(total) = 0.90221E+01    rms(broyden)= 0.90211E+01
  rms(prec ) = 0.10388E+02
  weight for this iteration     100.00

 eigenvalues of (default mixing * dielectric matrix)
  average eigenvalue GAMMA=   0.7781
  0.7781

 Free energy of the ion-electron system (eV)
  ---------------------------------------------------
  alpha Z        PSCENC =      4983.58366483
  Ewald energy   TEWEN  =    -66253.72368651
  -Hartree energ DENC   =    -25077.18133224
  -exchange      EXHF   =         0.00000000
  -V(xc)+E(xc)   XCENC  =      -371.88199363
  PAW double counting   =     89099.87098625   -90917.00811935
  entropy T*S    EENTRO =         0.08558533
  eigenvalues    EBANDS =      2531.61200895
  atomic energy  EATOM  =     84795.60080690
  Solvation  Ediel_sol  =         0.00000000
  ---------------------------------------------------
  free energy    TOTEN  =     -1209.04207946 eV

  energy without entropy =    -1209.12766479  energy(sigma->0) =    -1209.07060790


--------------------------------------------------------------------------------------------------------




--------------------------------------- Iteration      1(   7)  ---------------------------------------


    POTLOK:  cpu time    0.0075: real time    0.0123
    SETDIJ:  cpu time    0.0066: real time    0.0066
     EDDAV:  cpu time   33.4825: real time   33.5779
       DOS:  cpu time    0.0168: real time    0.0168
    CHARGE:  cpu time    0.5062: real time    0.5076
    MIXING:  cpu time    0.0045: real time    0.0045
    --------------------------------------------
      LOOP:  cpu time   34.0240: real time   34.1258

 eigenvalue-minimisations  : 37880
 total energy-change (2. order) :-0.2052783E+03  (-0.2695209E+03)
 number of electron    1007.9999670 magnetization 
 augmentation part      473.6052684 magnetization 

 Broyden mixing:
  rms(total) = 0.21761E+02    rms(broyden)= 0.21759E+02
  rms(prec ) = 0.27669E+02
  weight for this iteration     100.00

 eigenvalues of (default mixing * dielectric matrix)
  average eigenvalue GAMMA=   0.6884
  1.1823  0.1946

 Free energy of the ion-electron system (eV)
  ---------------------------------------------------
  alpha Z        PSCENC =      4983.58366483
  Ewald energy   TEWEN  =    -66253.72368651
  -Hartree energ DENC   =    -26553.41990495
  -exchange      EXHF   =         0.00000000
  -V(xc)+E(xc)   XCENC  =      -299.27057460
  PAW double counting   =     95896.17210504   -98203.10055888
  entropy T*S    EENTRO =        -0.04288274
  eigenvalues    EBANDS =      4219.88069472
  atomic energy  EATOM  =     84795.60080690
  Solvation  Ediel_sol  =         0.00000000
  ---------------------------------------------------
  free energy    TOTEN  =     -1414.32033619 eV

  energy without entropy =    -1414.27745345  energy(sigma->0) =    -1414.30604194


--------------------------------------------------------------------------------------------------------




--------------------------------------- Iteration      1(   8)  ---------------------------------------


    POTLOK:  cpu time    0.0128: real time    0.0134
    SETDIJ:  cpu time    0.0067: real time    0.0067
     EDDAV:  cpu time   30.9530: real time   31.0407
       DOS:  cpu time    0.0177: real time    0.0177
    CHARGE:  cpu time    0.5151: real time    0.5164
    MIXING:  cpu time    0.0049: real time    0.0050
    --------------------------------------------
      LOOP:  cpu time   31.5103: real time   31.5998

 eigenvalue-minimisations  : 34684
 total energy-change (2. order) : 0.2332646E+03  (-0.2070005E+03)
 number of electron    1007.9999603 magnetization 
 augmentation part      520.7839237 magnetization 

 Broyden mixing:
  rms(total) = 0.83211E+01    rms(broyden)= 0.83147E+01
  rms(prec ) = 0.10874E+02
  weight for this iteration     100.00

 eigenvalues of (default mixing * dielectric matrix)
  average eigenvalue GAMMA=   0.5519
  1.1835  0.3263  0.1458

 Free energy of the ion-electron system (eV)
  ---------------------------------------------------
  alpha Z        PSCENC =      4983.58366483
  Ewald energy   TEWEN  =    -66253.72368651
  -Hartree energ DENC   =    -25311.22276422
  -exchange      EXHF   =         0.00000000
  -V(xc)+E(xc)   XCENC  =      -356.72155105
  PAW double counting   =     97311.19187682   -99494.88194011
  entropy T*S    EENTRO =         0.01689826
  eigenvalues    EBANDS =      3145.10100524
  atomic energy  EATOM  =     84795.60080690
  Solvation  Ediel_sol  =         0.00000000
  ---------------------------------------------------
  free energy    TOTEN  =     -1181.05568983 eV

  energy without entropy =    -1181.07258809  energy(sigma->0) =    -1181.06132258


--------------------------------------------------------------------------------------------------------




--------------------------------------- Iteration      1(   9)  ---------------------------------------


    POTLOK:  cpu time    0.0079: real time    0.0133
    SETDIJ:  cpu time    0.0069: real time    0.0070
     EDDAV:  cpu time   30.7301: real time   30.8173
       DOS:  cpu time    0.0165: real time    0.0165
    CHARGE:  cpu time    0.5042: real time    0.5056
    MIXING:  cpu time    0.0046: real time    0.0046
    --------------------------------------------
      LOOP:  cpu time   31.2702: real time   31.3642

 eigenvalue-minimisations  : 34244
 total energy-change (2. order) : 0.2035382E+02  (-0.4734331E+02)
 number of electron    1007.9999542 magnetization 
 augmentation part      527.9815413 magnetization 

 Broyden mixing:
  rms(total) = 0.45076E+01    rms(broyden)= 0.45045E+01
  rms(prec ) = 0.56162E+01
  weight for this iteration     100.00

 eigenvalues of (default mixing * dielectric matrix)
  average eigenvalue GAMMA=   0.5553
  1.1021  0.7726  0.1733  0.1733

 Free energy of the ion-electron system (eV)
  ---------------------------------------------------
  alpha Z        PSCENC =      4983.58366483
  Ewald energy   TEWEN  =    -66253.72368651
  -Hartree energ DENC   =    -25108.06064170
  -exchange      EXHF   =         0.00000000
  -V(xc)+E(xc)   XCENC  =      -365.68951835
  PAW double counting   =     97695.01509905   -99864.13530616
  entropy T*S    EENTRO =         0.15118277
  eigenvalues    EBANDS =      2956.55652605
  atomic energy  EATOM  =     84795.60080690
  Solvation  Ediel_sol  =         0.00000000
  ---------------------------------------------------
  free energy    TOTEN  =     -1160.70187312 eV

  energy without entropy =    -1160.85305589  energy(sigma->0) =    -1160.75226738


--------------------------------------------------------------------------------------------------------




--------------------------------------- Iteration      1(  10)  ---------------------------------------


    POTLOK:  cpu time    0.0132: real time    0.0138
    SETDIJ:  cpu time    0.0068: real time    0.0068
     EDDAV:  cpu time   31.1303: real time   31.2189
       DOS:  cpu time    0.0167: real time    0.0167
    CHARGE:  cpu time    0.5070: real time    0.5082
    MIXING:  cpu time    0.0047: real time    0.0047
    --------------------------------------------
      LOOP:  cpu time   31.6787: real time   31.7692

 eigenvalue-minimisations  : 34880
 total energy-change (2. order) : 0.1493864E+02  (-0.1243744E+02)
 number of electron    1007.9999548 magnetization 
 augmentation part      521.8995704 magnetization 

 Broyden mixing:
  rms(total) = 0.29421E+01    rms(broyden)= 0.29416E+01
  rms(prec ) = 0.38308E+01
  weight for this iteration     100.00

 eigenvalues of (default mixing * dielectric matrix)
  average eigenvalue GAMMA=   0.5116
  1.1671  0.7226  0.2890  0.2189  0.1606

 Free energy of the ion-electron system (eV)
  ---------------------------------------------------
  alpha Z        PSCENC =      4983.58366483
  Ewald energy   TEWEN  =    -66253.72368651
  -Hartree energ DENC   =    -25261.72843097
  -exchange      EXHF   =         0.00000000
  -V(xc)+E(xc)   XCENC  =      -357.94716311
  PAW double counting   =     99117.39907448  -101356.26374747
  entropy T*S    EENTRO =         0.14550507
  eigenvalues    EBANDS =      3187.17074729
  atomic energy  EATOM  =     84795.60080690
  Solvation  Ediel_sol  =         0.00000000
  ---------------------------------------------------
  free energy    TOTEN  =     -1145.76322948 eV

  energy without entropy =    -1145.90873455  energy(sigma->0) =    -1145.81173117


--------------------------------------------------------------------------------------------------------




--------------------------------------- Iteration      1(  11)  ---------------------------------------


    POTLOK:  cpu time    0.0084: real time    0.0140
    SETDIJ:  cpu time    0.0062: real time    0.0062
     EDDAV:  cpu time   29.5883: real time   29.6727
       DOS:  cpu time    0.0168: real time    0.0169
    CHARGE:  cpu time    0.5037: real time    0.5051
    MIXING:  cpu time    0.0048: real time    0.0048
    --------------------------------------------
      LOOP:  cpu time   30.1282: real time   30.2196

 eigenvalue-minimisations  : 32512
 total energy-change (2. order) : 0.3990969E+01  (-0.3862560E+01)
 number of electron    1007.9999551 magnetization 
 augmentation part      518.7744987 magnetization 

 Broyden mixing:
  rms(total) = 0.19020E+01    rms(broyden)= 0.19014E+01
  rms(prec ) = 0.26488E+01
  weight for this iteration     100.00

 eigenvalues of (default mixing * dielectric matrix)
[...]
   0.788E+02 0.795E+01 0.462E+01   -.788E+02 -.882E+01 -.465E+01   -.808E+00 -.215E+00 -.690E-01   0.561E-02 0.871E-03 -.335E-02
   -.572E+02 0.241E+02 0.535E+02   0.569E+02 -.248E+02 -.544E+02   0.507E+00 -.373E+00 -.415E+00   -.312E-02 -.491E-02 0.153E-01
   0.561E+02 -.186E+02 -.377E+02   -.555E+02 0.189E+02 0.384E+02   -.338E+00 0.543E+00 0.380E+00   -.712E-02 -.185E-01 0.104E-02
   -.491E+02 -.859E+01 -.249E+01   0.486E+02 0.950E+01 0.251E+01   0.497E-02 0.758E-01 0.335E-01   -.306E-02 -.258E-02 0.161E-02
   0.580E+02 -.217E+01 -.158E+02   -.576E+02 0.232E+01 0.161E+02   -.458E-01 0.285E+00 -.622E-01   -.115E-01 -.787E-02 0.222E-02
   -.729E+02 0.845E+01 -.973E+01   0.724E+02 -.870E+01 0.101E+02   0.639E+00 -.208E+00 0.322E+00   -.940E-03 0.320E-02 -.159E-01
   0.667E+02 0.960E+01 0.282E+01   -.663E+02 -.923E+01 -.294E+01   -.397E+00 -.214E+00 -.156E+00   0.504E-02 0.756E-02 -.846E-02
   -.734E+02 -.224E+02 0.429E+02   0.734E+02 0.243E+02 -.448E+02   0.615E+00 0.543E-01 -.204E+00   -.940E-02 -.215E-02 0.102E-01
   0.585E+02 0.714E+01 -.365E+02   -.579E+02 -.755E+01 0.374E+02   0.375E-01 -.412E+00 0.129E+00   -.111E-01 0.734E-02 -.864E-02
   -.706E+02 0.193E+02 0.139E+02   0.702E+02 -.194E+02 -.140E+02   0.657E+00 -.387E+00 -.409E+00   -.135E-01 -.936E-02 0.417E-02
   0.648E+02 -.117E+02 0.137E+02   -.646E+02 0.114E+02 -.139E+02   -.293E+00 0.339E+00 -.446E+00   -.934E-02 -.305E-03 0.167E-01
   -.550E+02 0.129E+02 -.206E+02   0.546E+02 -.126E+02 0.208E+02   0.242E+00 -.107E+00 0.447E+00   -.188E-02 0.141E-02 -.129E-01
   0.504E+02 -.112E+02 -.258E+01   -.498E+02 0.106E+02 0.274E+01   -.116E+00 -.127E+00 0.134E+00   0.440E-02 -.174E-02 -.220E-02
   -.576E+02 -.995E+01 0.125E+02   0.571E+02 0.107E+02 -.127E+02   0.248E+00 0.154E+00 -.202E+00   -.624E-02 0.667E-02 0.612E-02
   0.446E+02 -.202E+01 -.525E+01   -.437E+02 0.152E+01 0.573E+01   -.120E+00 0.316E-01 0.100E+00   -.592E-02 0.110E-01 -.792E-02
   -.692E+02 -.129E+01 -.608E+01   0.687E+02 0.165E+01 0.622E+01   0.435E+00 0.928E-01 0.121E+00   -.126E-01 0.113E-03 0.205E-02
   0.643E+02 -.768E+01 0.145E+01   -.640E+02 0.731E+01 -.201E+01   -.683E+00 0.992E-01 -.313E+00   -.567E-02 0.683E-02 0.994E-02
   -.584E+02 0.127E+01 0.456E+01   0.580E+02 -.934E+00 -.461E+01   0.298E+00 0.177E-01 -.371E-01   0.505E-02 -.110E-02 -.776E-02
   0.727E+02 0.995E+01 0.291E+01   -.722E+02 -.980E+01 -.274E+01   -.712E+00 -.598E-01 0.168E+00   0.966E-02 -.447E-02 0.125E-01
   -.651E+02 -.609E+01 0.224E+01   0.645E+02 0.677E+01 -.238E+01   0.215E+00 0.202E+00 0.163E+00   0.101E-01 0.492E-02 -.190E-02
   0.678E+02 0.253E+01 -.271E+02   -.676E+02 -.315E+01 0.278E+02   -.358E+00 0.233E-01 0.717E+00   0.913E-02 0.118E-02 -.118E-01
   -.528E+02 0.184E+02 -.311E+01   0.521E+02 -.184E+02 0.311E+01   0.222E+00 -.389E+00 0.424E-01   0.470E-02 0.127E-01 -.431E-02
   0.652E+02 -.366E+01 -.118E+02   -.649E+02 0.301E+01 0.121E+02   -.385E+00 0.851E-01 0.357E+00   0.125E-02 0.104E-02 -.172E-02
   -.799E+02 -.151E+02 -.191E+02   0.799E+02 0.154E+02 0.198E+02   0.952E+00 0.197E+00 0.418E+00   -.283E-02 -.196E-03 0.485E-02
   0.657E+02 0.146E+02 -.156E+02   -.652E+02 -.151E+02 0.160E+02   -.271E+00 -.199E+00 0.207E+00   0.925E-02 -.601E-02 0.779E-02
   -.572E+02 0.196E+02 0.679E+01   0.567E+02 -.197E+02 -.706E+01   0.360E+00 -.269E+00 -.104E+00   0.101E-01 -.400E-02 0.406E-02
   0.540E+02 -.218E+02 -.193E+02   -.537E+02 0.219E+02 0.196E+02   -.555E+00 0.236E+00 0.599E+00   0.100E-01 -.161E-01 -.120E-01
   -.619E+02 0.547E+01 -.239E+01   0.615E+02 -.502E+01 0.243E+01   0.394E+00 -.734E-01 -.930E-01   0.879E-04 0.129E-03 -.539E-02
   0.632E+02 -.942E+01 -.203E+02   -.628E+02 0.981E+01 0.205E+02   -.291E+00 0.382E+00 0.367E+00   0.153E-02 -.134E-01 0.433E-02
   -.614E+02 0.643E+01 0.138E+02   0.614E+02 -.637E+01 -.140E+02   0.395E+00 -.310E-01 -.409E+00   0.460E-02 -.635E-02 0.204E-02
   0.592E+02 -.279E+02 -.156E+02   -.586E+02 0.278E+02 0.159E+02   -.316E+00 0.179E+00 0.158E+00   0.547E-02 0.193E-02 0.284E-02
   -.609E+02 -.460E+01 -.173E+02   0.604E+02 0.541E+01 0.181E+02   0.397E+00 0.135E+00 0.144E+00   0.848E-02 -.120E-01 -.326E-02
   0.462E+02 0.506E+01 -.554E+01   -.455E+02 -.560E+01 0.544E+01   -.167E+00 -.170E+00 -.105E+00   0.736E-02 0.156E-02 -.178E-01
   -.532E+02 -.105E+02 0.115E+02   0.527E+02 0.111E+02 -.119E+02   0.206E+00 0.179E+00 0.480E-01   -.283E-02 -.202E-01 -.130E-02
   0.557E+02 0.100E+02 0.386E+01   -.552E+02 -.110E+02 -.402E+01   -.256E+00 -.196E+00 -.202E+00   -.842E-03 0.207E-02 0.166E-01
   -.563E+02 0.369E+02 -.561E+00   0.561E+02 -.378E+02 0.512E+00   0.323E+00 -.427E+00 0.975E-01   -.130E-02 0.226E-02 0.355E-02
   0.665E+02 0.219E+00 -.407E+01   -.661E+02 -.957E+00 0.422E+01   -.355E+00 -.118E+00 0.413E-01   0.210E-02 0.799E-02 0.863E-02
   -.731E+02 0.966E+00 -.487E+01   0.725E+02 -.120E+01 0.523E+01   0.413E+00 -.119E+00 0.129E+00   0.798E-02 0.117E-01 -.811E-02
   0.673E+02 0.312E+01 0.105E+02   -.667E+02 -.327E+01 -.107E+02   -.491E+00 0.728E-01 -.103E+00   -.236E-03 0.142E-01 -.171E-01
   -.591E+02 -.359E+01 -.192E+01   0.586E+02 0.391E+01 0.203E+01   0.196E-01 0.856E-01 0.382E+00   0.389E-02 0.761E-02 -.493E-03
   0.742E+02 -.171E+02 0.554E+01   -.736E+02 0.176E+02 -.572E+01   -.598E+00 0.286E+00 0.679E-01   0.109E-03 0.940E-02 0.106E-01
   -.671E+02 -.127E+02 -.138E+02   0.668E+02 0.136E+02 0.141E+02   0.505E+00 0.169E+00 0.397E+00   -.554E-02 0.520E-02 0.591E-02
 -----------------------------------------------------------------------------------------------
   -.692E+00 -.438E+01 -.144E+02   0.995E-12 -.870E-13 0.284E-13   0.741E+00 0.439E+01 0.145E+02   -.481E-01 0.633E-03 -.721E-02
 
 
 POSITION                                       TOTAL-FORCE (eV/Angst)
 -----------------------------------------------------------------------------------
      2.95585     -0.34291      0.90060         0.468697      0.125608      0.622212
     10.65851      9.81985      3.01509        -0.151814     -0.134423      0.123999
      3.14153     -0.22303      5.02757        -0.540335     -0.382061      0.692635
     10.65244      9.76023      7.18015        -0.072272      0.326680      0.401742
      2.93898     -0.27768      9.07253         0.629759     -0.047607      1.470603
     10.67014      9.84377     11.13954        -0.500753      0.141880      0.869586
      3.13157      2.69582      1.08629        -0.142784     -0.247112     -0.157525
     10.56758      1.09378      3.10469         0.245226      0.664003     -0.502872
      3.14370      2.56903      4.97614        -0.494320     -0.784420      2.522351
     10.70529      1.20248      7.32963        -0.103964      0.039091     -0.776497
      3.06178      2.72300      9.17453         0.070941     -0.590373      0.327633
     10.60387      1.21978     11.38994         0.111525     -0.005314     -0.809390
      3.08526      5.58498      1.11164        -0.019445     -0.693331     -0.546661
     10.63653      4.02156      2.87404        -0.296645      0.452816      0.893499
      3.11066      5.44318      5.26456        -0.379047      0.088355     -0.234184
     10.63903      4.08120      7.26398         0.019425      0.121097     -0.641488
      3.10114      5.45171      9.20315         0.077102     -0.066245      0.166937
     10.62849      4.10729     11.42182         0.211541      0.162433     -1.139587
      3.07740      8.50435      0.93833        -0.233839     -0.830329      0.527060
     10.72442      6.93539      3.16052        -0.521597      0.438276     -0.367453
      3.09292      8.29307      5.09321        -0.212476     -0.149501      0.325195
     10.58035      6.99194      7.31015         0.344127     -0.140072     -0.642981
      3.01019      8.25910      9.23581         0.284153     -0.263548      0.259398
     10.67376      6.95586     11.22755        -0.122990      0.235182      0.402764
      7.59878     -0.85955      1.08507         0.228221     -0.632158     -0.250841
      1.44912     11.13838      3.14754         0.359175      0.296763     -0.380591
      7.61546     -0.94483      5.17533        -0.095192     -0.223826     -0.272676
      1.38305     10.99017      7.25178        -0.136370      0.537061     -0.718902
      7.71342     -0.85143      9.17691        -0.476268     -0.110254      0.214449
      1.46416     11.22319     11.24623         0.113056     -0.221464      0.075843
      7.60918      2.03005      1.13790        -0.209227     -0.792236     -0.745383
      1.47976      2.55696      3.26911        -0.705223      0.007779     -1.191717
      7.74895      1.94150      5.14707        -0.260912     -0.094886     -0.048873
      1.49310      2.44678      7.18760         0.335554      0.208759     -0.419342
      7.68910      2.06790      9.12783        -0.115002     -0.802585      0.578236
      1.48597      2.52004     11.43321         0.305176      0.261005     -0.797642
      7.68031      4.87129      0.97952        -0.165521     -0.261491      0.359362
      1.57583      5.34020      3.08788        -0.594148      0.123802      0.295414
      7.69623      4.82223      5.03410         0.380249     -0.063362      0.787535
      1.50077      5.39493      7.24767         0.032586      0.123489     -0.384280
      7.71767      4.88281      9.34381        -0.453502     -0.554215     -0.809122
      1.54720      5.35959     11.28460        -0.076353      0.075592      0.174566
      7.63017      7.70746      1.02718         0.250185     -0.052316      0.032463
      1.49004      8.24136      3.13321         0.152698     -0.185176     -0.130219
      7.53121      7.65502      5.04711         0.613525      0.155832      0.310717
      1.48682      8.23814      7.17183         0.025866      0.117620      0.056792
      7.53375      7.58750      9.33809         0.202065     -0.315994     -0.704526
      1.42077      8.26812     11.29814         0.225357     -0.155408      0.365051
     12.20740     -1.61766      1.03496         0.040181      0.053952     -0.295421
      5.96586     10.46035      3.12663         0.556318      0.107079     -0.221137
     12.15065     -1.54062      5.23748         0.471311     -0.175533     -0.585626
      5.96138     10.46948      7.21092         0.398323      0.116292      0.060420
     12.28800     -1.59666      9.34865        -0.155007      0.191790     -0.860332
      6.08728     10.42279     11.29902         0.034475      0.582267     -0.131906
     12.15089      1.26162      0.99185         0.267097      0.109223      0.285963
      6.08382      1.84754      3.19071         0.072329      0.110256     -0.793723
     12.18118      1.26546      5.24180         0.137796     -0.383703     -0.462566
      6.05619      1.85253      7.18797         0.169772     -0.075842     -0.240690
     12.27119      1.36883      9.32604        -0.008527     -0.424254     -0.099969
      6.06981      1.77840     11.33035        -0.091511      0.614193     -0.095722
     12.20457      4.09637      1.00816         0.489782      0.149472     -0.069059
      6.14390      4.75758      3.27003        -0.375253      0.155247     -1.437896
     12.25602      4.09178      5.07831        -0.522414      0.137865      0.390396
      6.17385      4.79840      7.31610        -0.269914     -0.085479     -0.432846
     12.23658      4.13303      9.17449        -0.145581     -0.208173      0.558651
      6.04590      4.63542     11.36748        -0.148185      0.387800     -0.184395
     12.17981      7.02857      1.06860         0.055028      0.087701     -0.350583
      6.03534      7.54634      3.05817         0.002405      0.680950     -0.240083
     12.29301      6.96110      5.08662        -0.243500      0.153056      0.555964
      6.06328      7.73644      7.15533         0.065180     -0.219656      0.174565
     12.24889      6.94806      9.26677        -0.277733      0.064749     -0.444690
      6.05294      7.51641     11.44863        -0.372370      0.181515     -0.440787
      1.05301      1.18156      1.03881         0.102179     -0.827474      0.350396
     12.76677      8.56780      3.03598        -0.603940     -0.590736      0.521873
      0.94049      1.05677      5.13176         0.208464      0.083851      0.074061
     12.70007      8.44110      7.31943         0.156090     -0.221095     -0.573570
      1.03822      1.08218      9.29453        -0.295183     -0.231613     -0.061320
     12.71825      8.54632     11.24635         0.254886     -0.756203      0.604912
      1.04902      3.96174      0.90336        -0.058362      0.364038      1.238435
     12.63126     -0.09953      3.05556         0.541181     -0.084816     -0.063920
      0.98655      4.02168      5.08269        -0.010287     -0.741613      0.650602
     12.85314     -0.23588      7.27754        -0.876303      0.691515     -0.111620
      0.99196      3.88555      9.08940        -0.118361      0.116478      0.747129
     12.72230     -0.16041     11.39707        -0.059369      0.486416     -0.406135
      0.91887      6.82036      1.16057         0.424093     -0.278160     -0.715344
     12.59087      2.70076      3.17982         0.778242     -0.209026     -1.011113
      0.96457      6.77142      5.24016         0.421578      0.298813     -0.556998
     12.72481      2.67779      7.15244        -0.329026      0.326712      0.087169
      0.99812      6.63126      9.28076        -0.130363      0.942102     -0.131467
     12.76352      2.71095     11.37263        -0.307017      0.281158     -0.507726
      0.97625      9.64032      1.18787        -0.072533      0.368288     -0.937332
     12.66953      5.54198      3.08550         0.001970      0.549022     -0.022801
      1.03388      9.69503      5.09059        -0.178035     -0.508104      0.406475
     12.74354      5.55572      7.13857        -0.274541      0.327106      0.420894
      0.94170      9.53768      9.34182         0.350189      0.436326     -0.368750
     12.67490      5.62288     11.14674         0.482437     -0.285204      1.076135
      5.57895      0.32195      0.96387        -0.642703      1.117530      0.333495
      3.58269      9.72438      3.15574        -0.502572      0.475573     -0.748881
      5.52377      0.48160      5.04782         0.456933     -0.659858      0.589366
      3.50730      9.86621      7.31245         0.339116     -1.291255     -0.619702
      5.55083      0.34902      9.26529         0.243639      0.215982     -0.208738
      3.63193      9.77368     11.30351        -0.913514      0.438391     -0.381764
      5.66158      3.42811      1.14733        -0.767303     -1.078898     -0.104824
      3.55612      1.24341      3.14269         0.170862     -1.149614     -1.233501
      5.64240      3.21661      5.04789         0.227883      0.830653      1.095948
      3.63155      1.07199      7.14979        -0.459742      0.984539      0.054693
      5.57047      3.19327      9.15089         0.342198      0.423054      0.258496
      3.52150      1.24898     11.13921         0.219177     -0.447380      0.661432
      5.56110      6.16304      1.12197         0.001188      0.159775     -0.293289
      3.54828      3.89362      3.34106         0.567133      2.007392     -2.039610
      5.52865      6.25860      5.00233         0.606005     -0.815362      1.071418
      3.61271      4.07232      7.21895         0.239757     -0.406054     -0.502453
      5.54747      6.08998      9.40881        -0.124340      0.024846     -0.673142
      3.62780      4.04337     11.19901        -0.130342      0.179042      0.642021
      5.50622      9.05989      1.01585         0.476096     -0.696897      0.287727
      3.53531      6.74575      3.15866        -0.264555      0.948014     -0.353886
      5.43306      9.10510      5.11327         0.737607     -0.457082      0.574514
      3.62563      6.92102      7.17859        -0.026730      0.451039      0.269097
      5.58977      9.00336      9.34675        -0.352923     -0.268594     -0.864759
      3.51737      6.88346     11.38827        -0.113647      0.348124     -0.095207
     10.13747     -0.23701      0.94559        -0.269250      0.083903      0.348383
      8.16295      9.03908      3.09731        -0.373856      0.888250      0.020090
     10.14475     -0.23049      4.96942        -0.146432     -0.591464      1.396105
      8.19148      9.18487      7.19371        -0.441366     -0.470583      0.036675
     10.18618     -0.20229      9.14245        -0.101600     -0.570842      0.672529
      7.97229      9.04014     11.09927         1.037294      0.507265      1.132016
     10.08831      2.70420      0.85053         0.176362     -0.711833      0.681094
      8.11039      0.51204      3.13298        -0.118702     -0.410287     -0.375643
     10.17261      2.60877      4.97216        -0.327966      0.352325      0.911458
      8.14543      0.47768      7.13821         0.001510      0.370538     -0.062114
     10.15383      2.57506      9.20466         0.072948      0.752901      0.555778
      8.07793      0.55112     11.40308         0.393824      0.022335     -0.566127
     10.16831      5.56125      0.91936         0.276080      0.079047      0.460610
      8.19261      3.33146      2.92996        -0.037420      0.938347      0.946716
     10.10288      5.57318      5.14682         0.524238     -0.708996     -0.222828
      8.21622      3.32209      7.17272        -0.308431      0.752451     -0.265563
     10.10717      5.57917      9.26256         0.213978     -1.165872     -0.343969
      8.10780      3.49248     11.25594         0.176225     -1.244502      0.052013
     10.11334      8.48232      0.88328         0.082580     -0.848710      0.192891
      8.22163      6.31204      2.96951        -0.156466     -0.344102      0.480462
     10.17776      8.35314      5.20996         0.084434     -0.065251     -0.399957
      8.11765      6.24586      7.06942        -0.440850      0.413162      0.498384
     10.11759      8.31458      9.28246         0.044084      0.783793     -0.105514
      8.11997      6.17008     11.26309         0.145366      1.103204      0.706264
 -----------------------------------------------------------------------------------
    total drift:                                0.000154      0.010307     -0.001825


--------------------------------------------------------------------------------------------------------



  FREE ENERGIE OF THE ION-ELECTRON SYSTEM (eV)
  ---------------------------------------------------
  free  energy   TOTEN  =     -1137.26410235 eV

  energy  without entropy=    -1137.48057895  energy(sigma->0) =    -1137.33626122
 


--------------------------------------------------------------------------------------------------------


    POTLOK:  cpu time    0.0143: real time    0.0143


--------------------------------------------------------------------------------------------------------


 writing wavefunctions
     LOOP+:  cpu time  942.1406: real time  968.0704
    4ORBIT:  cpu time    0.0000: real time    0.0000

 total amount of memory used by VASP MPI-rank0   222149. kBytes
=======================================================================

   base      :      30000. kBytes
   nonl-proj :       6850. kBytes
   fftplans  :       3077. kBytes
   grid      :       4956. kBytes
   one-center:         77. kBytes
   wavefun   :     177189. kBytes
 
  
  
 General timing and accounting informations for this job:
 ========================================================
  
                  Total CPU time used (sec):      962.047
                            User time (sec):      956.765
                          System time (sec):        5.281
                         Elapsed time (sec):      989.174
  
                   Maximum memory used (kb):      281160.
                   Average memory used (kb):           0.
  
                          Minor page faults:       103189
                          Major page faults:            0
                 Voluntary context switches:         9505
