LAMMPS (24 Dec 2020)
KOKKOS mode is enabled (src/KOKKOS/kokkos.cpp:92)
  will use up to 1 GPU(s) per node
WARNING: Turning off GPU-aware MPI since it is not detected, use '-pk kokkos gpu/aware on' to override (src/KOKKOS/kokkos.cpp:261)
  using 1 OpenMP thread(s) per MPI task
package kokkos
package kokkos newton on neigh half
units		metal
atom_style	atomic

variable L equal 2
lattice		diamond 5.431
Lattice spacing in x,y,z = 5.4310000 5.4310000 5.4310000
region		box block 0 $L 0 $L 0 $L
region		box block 0 2 0 $L 0 $L
region		box block 0 2 0 2 0 $L
region		box block 0 2 0 2 0 2
create_box	1 box
Created orthogonal box = (0.0000000 0.0000000 0.0000000) to (10.862000 10.862000 10.862000)
  1 by 1 by 2 MPI processor grid
create_atoms	1 box
Created 64 atoms
  create_atoms CPU = 0.002 seconds

newton on
pair_style	flare
pair_coeff	* * Si.txt
Reading potential file Si.txt with DATE: Mon
mass            1 28.06

velocity	all create 1000.0 376847 loop geom

neighbor	1.0 bin
neigh_modify    delay 5 every 1

fix		1 all nve

timestep	0.001

displace_atoms all random 0.2 0.2 0.2 654321
Displacing atoms ...

dump 1 all custom 1 si.dump id type x y z fx fy fz
dump_modify 1 sort id

run		0
Neighbor list info ...
  update every 1 steps, delay 5 steps, check yes
  max neighbors/atom: 2000, page size: 100000
  master list distance cutoff = 5.2
  ghost atom cutoff = 5.2
  binsize = 5.2, bins = 3 3 3
  1 neighbor lists, perpetual/occasional/extra = 1 0 0
  (1) pair flare/kk, perpetual
      attributes: full, newton on, kokkos_device
      pair build: full/bin/kk/device
      stencil: full/bin/3d
      bin: kk/device
Per MPI rank memory allocation (min/avg/max) = 1.937 | 1.938 | 1.939 Mbytes
Step Temp E_pair E_mol TotEng Press 
       0         1000            0            0    8.1433891    108180.77 
Loop time of 0.000177849 on 2 procs for 0 steps with 64 atoms

50.0% CPU use with 2 MPI tasks x 1 OpenMP threads

MPI task timing breakdown:
Section |  min time  |  avg time  |  max time  |%varavg| %total
---------------------------------------------------------------
Pair    | 0          | 0          | 0          |   0.0 |  0.00
Neigh   | 0          | 0          | 0          |   0.0 |  0.00
Comm    | 0          | 0          | 0          |   0.0 |  0.00
Output  | 0          | 0          | 0          |   0.0 |  0.00
Modify  | 0          | 0          | 0          |   0.0 |  0.00
Other   |            | 0.0001778  |            |       |100.00

Nlocal:        32.0000 ave          33 max          31 min
Histogram: 1 0 0 0 0 0 0 0 0 1
Nghost:        339.000 ave         343 max         335 min
Histogram: 1 0 0 0 0 0 0 0 0 1
Neighs:         0.00000 ave           0 max           0 min
Histogram: 2 0 0 0 0 0 0 0 0 0
FullNghs:      894.000 ave         925 max         863 min
Histogram: 1 0 0 0 0 0 0 0 0 1

Total # of neighbors = 1788
Ave neighs/atom = 27.937500
Neighbor list builds = 0
Dangerous builds = 0
Total wall time: 0:00:00
