LAMMPS (3 Mar 2020)
# generic lammps input file
units metal
atom_style atomic
dimension  3
boundary   p p p
newton off
read_data tmp.data
  triclinic box = (0 0 0) to (100 100 100) with tilt (0 0 0)
  1 by 1 by 1 MPI processor grid
  reading atoms ...
  4 atoms
  read_data CPU = 0.005325 secs

pair_style flare
pair_coeff * * Ag_u3.eam
Reading potential file Ag_u3.eam with DATE: 2007-06-11

thermo_style one

dump 1 all custom 1 tmp.dump id type x y z fx fy fz
dump_modify 1 sort id
run 0
WARNING: No fixes defined, atoms won't move (../verlet.cpp:52)
Neighbor list info ...
  update every 1 steps, delay 10 steps, check yes
  max neighbors/atom: 2000, page size: 100000
  master list distance cutoff = 7.55
  ghost atom cutoff = 7.55
  binsize = 3.775, bins = 27 27 27
  1 neighbor lists, perpetual/occasional/extra = 1 0 0
  (1) pair flare, perpetual
      attributes: half, newton off
      pair build: half/bin/newtoff
      stencil: half/bin/3d/newtoff
      bin: standard
Per MPI rank memory allocation (min/avg/max) = 4.432 | 4.432 | 4.432 Mbytes
Step Temp E_pair E_mol TotEng Press 
       0            0    821.00701            0    821.00701    1542.6592 
Loop time of 1e-06 on 1 procs for 0 steps with 4 atoms

100.0% CPU use with 1 MPI tasks x no OpenMP threads

MPI task timing breakdown:
Section |  min time  |  avg time  |  max time  |%varavg| %total
---------------------------------------------------------------
Pair    | 0          | 0          | 0          |   0.0 |  0.00
Neigh   | 0          | 0          | 0          |   0.0 |  0.00
Comm    | 0          | 0          | 0          |   0.0 |  0.00
Output  | 0          | 0          | 0          |   0.0 |  0.00
Modify  | 0          | 0          | 0          |   0.0 |  0.00
Other   |            | 1e-06      |            |       |100.00

Nlocal:    4 ave 4 max 4 min
Histogram: 1 0 0 0 0 0 0 0 0 0
Nghost:    28 ave 28 max 28 min
Histogram: 1 0 0 0 0 0 0 0 0 0
Neighs:    11 ave 11 max 11 min
Histogram: 1 0 0 0 0 0 0 0 0 0

Total # of neighbors = 11
Ave neighs/atom = 2.75
Neighbor list builds = 0
Dangerous builds = 0
Total wall time: 0:00:00
