LAMMPS (29 Oct 2020)
# generic lammps input file
units metal
atom_style atomic
dimension  3
boundary   p p p
newton on
read_data tmp.data
Reading data file ...
  triclinic box = (0.0000000 0.0000000 0.0000000) to (100.00000 100.00000 100.00000) with tilt (0.0000000 0.0000000 0.0000000)
  1 by 1 by 1 MPI processor grid
  reading atoms ...
  4 atoms
  read_data CPU = 0.006 seconds

pair_style flare
pair_coeff * * beta.txt
Reading potential file beta.txt with DATE: Sun

thermo_style custom pe etotal press pxx pyy pzz pxy pxz pyz

compute 1 all stress/atom NULL
dump 1 all custom 1 tmp.dump id type x y z fx fy fz c_1[1] c_1[2] c_1[3] c_1[4] c_1[5] c_1[6]
dump_modify 1 sort id
run 0
WARNING: No fixes defined, atoms won't move (../verlet.cpp:54)
Neighbor list info ...
  update every 1 steps, delay 10 steps, check yes
  max neighbors/atom: 2000, page size: 100000
  master list distance cutoff = 7
  ghost atom cutoff = 7
  binsize = 3.5, bins = 29 29 29
  1 neighbor lists, perpetual/occasional/extra = 1 0 0
  (1) pair flare, perpetual
      attributes: full, newton on
      pair build: full/bin/atomonly
      stencil: full/bin/3d
      bin: standard
Per MPI rank memory allocation (min/avg/max) = 5.957 | 5.957 | 5.957 Mbytes
PotEng TotEng Press Pxx Pyy Pzz Pxy Pxz Pyz 
-0.0035327909 -0.0035327909   -32.195612   -25.095418   -47.640622   -23.850796   -20.460298   -45.757167    18.818271 
Loop time of 3.09944e-06 on 1 procs for 0 steps with 4 atoms

96.8% CPU use with 1 MPI tasks x no OpenMP threads

MPI task timing breakdown:
Section |  min time  |  avg time  |  max time  |%varavg| %total
---------------------------------------------------------------
Pair    | 0          | 0          | 0          |   0.0 |  0.00
Neigh   | 0          | 0          | 0          |   0.0 |  0.00
Comm    | 0          | 0          | 0          |   0.0 |  0.00
Output  | 0          | 0          | 0          |   0.0 |  0.00
Modify  | 0          | 0          | 0          |   0.0 |  0.00
Other   |            | 3.099e-06  |            |       |100.00

Nlocal:        4.00000 ave           4 max           4 min
Histogram: 1 0 0 0 0 0 0 0 0 0
Nghost:        28.0000 ave          28 max          28 min
Histogram: 1 0 0 0 0 0 0 0 0 0
Neighs:        0.00000 ave           0 max           0 min
Histogram: 1 0 0 0 0 0 0 0 0 0
FullNghs:      12.0000 ave          12 max          12 min
Histogram: 1 0 0 0 0 0 0 0 0 0

Total # of neighbors = 12
Ave neighs/atom = 3.0000000
Neighbor list builds = 0
Dangerous builds = 0
Total wall time: 0:00:00
