LAMMPS (24 Dec 2020)
KOKKOS mode is enabled (src/KOKKOS/kokkos.cpp:92)
  will use up to 1 GPU(s) per node
  using 1 OpenMP thread(s) per MPI task
package kokkos
package kokkos newton on neigh full
# generic lammps input file
units metal
atom_style atomic
dimension  3
boundary   p p p
newton on
read_data tmp.data
Reading data file ...
  triclinic box = (0.0000000 0.0000000 0.0000000) to (100.00000 100.00000 100.00000) with tilt (0.0000000 0.0000000 0.0000000)
  1 by 1 by 1 MPI processor grid
  reading atoms ...
  4 atoms
  read_data CPU = 0.001 seconds

pair_style flare
pair_coeff * * beta.txt
Reading potential file beta.txt with DATE: Sun

thermo_style custom pe etotal press pxx pyy pzz pxy pxz pyz

dump 1 all custom 1 tmp.dump id type x y z fx fy fz
dump_modify 1 sort id
run 0
WARNING: No fixes defined, atoms won't move (src/verlet.cpp:54)
Neighbor list info ...
  update every 1 steps, delay 10 steps, check yes
  max neighbors/atom: 2000, page size: 100000
  master list distance cutoff = 7
  ghost atom cutoff = 7
  binsize = 7, bins = 15 15 15
  1 neighbor lists, perpetual/occasional/extra = 1 0 0
  (1) pair flare/kk, perpetual
      attributes: full, newton on, ghost, kokkos_device
      pair build: full/bin/ghost/kk/device
      stencil: full/ghost/bin/3d
      bin: kk/device
Per MPI rank memory allocation (min/avg/max) = 1.867 | 1.867 | 1.867 Mbytes
PotEng TotEng Press Pxx Pyy Pzz Pxy Pxz Pyz 
-0.0035327909 -0.0035327909            0            0            0            0            0            0            0 
Loop time of 8.2267e-05 on 1 procs for 0 steps with 4 atoms

54.7% CPU use with 1 MPI tasks x 1 OpenMP threads

MPI task timing breakdown:
Section |  min time  |  avg time  |  max time  |%varavg| %total
---------------------------------------------------------------
Pair    | 0          | 0          | 0          |   0.0 |  0.00
Neigh   | 0          | 0          | 0          |   0.0 |  0.00
Comm    | 0          | 0          | 0          |   0.0 |  0.00
Output  | 0          | 0          | 0          |   0.0 |  0.00
Modify  | 0          | 0          | 0          |   0.0 |  0.00
Other   |            | 8.227e-05  |            |       |100.00

Nlocal:        4.00000 ave           4 max           4 min
Histogram: 1 0 0 0 0 0 0 0 0 0
Nghost:        28.0000 ave          28 max          28 min
Histogram: 1 0 0 0 0 0 0 0 0 0
Neighs:         0.00000 ave           0 max           0 min
Histogram: 1 0 0 0 0 0 0 0 0 0
FullNghs:      12.0000 ave          12 max          12 min
Histogram: 1 0 0 0 0 0 0 0 0 0

Total # of neighbors = 12
Ave neighs/atom = 3.0000000
Neighbor list builds = 0
Dangerous builds = 0
Total wall time: 0:00:00
