Header of the LAMMPS data file

2 atoms
1 atom types

0.0 100.0  xlo xhi
0.0 100.0  ylo yhi
0.0 100.0  zlo zhi
0.0 0.0 0.0  xy xz yz

Masses

1 108

Atoms

1 1 0.0 0.0 0.0
2 1 4.0 0.0 0.0
