ITEM: TIMESTEP
0
ITEM: NUMBER OF ATOMS
4
ITEM: BOX BOUNDS xy xz yz pp pp pp
0.0000000000000000e+00 1.0000000000000000e+02 0.0000000000000000e+00
0.0000000000000000e+00 1.0000000000000000e+02 0.0000000000000000e+00
0.0000000000000000e+00 1.0000000000000000e+02 0.0000000000000000e+00
ITEM: ATOMS id type x y z fx fy fz 
1 1 0 0 0 -0.074693 -0.0842995 0.0225072 
2 1 0.13 0.76 0.31 -0.0912268 0.10643 0.03612 
3 2 99.61 0.32 0.18 0.173345 0.00610226 -0.0357821 
4 1 0.76 99.48 0.22 -0.0074253 -0.0282326 -0.0228452 
