Header of the LAMMPS data file

2 atoms
1 atom types

0.0 100.000000  xlo xhi
0.0 100.000000  ylo yhi
0.0 100.000000  zlo zhi
0.000000 0.000000 0.000000  xy xz yz

Masses

1 108

Atoms

1 1 0.000000 0.000000 0.000000 
2 1 4.000000 0.000000 0.000000 
