LAMMPS (5 Jun 2019)
Reading data file ...
  triclinic box = (0 0 0) to (100 100 100) with tilt (0 0 0)
  1 by 1 by 2 MPI processor grid
  reading atoms ...
  2 atoms
  read_data CPU = 0.005086 secs
Reading potential file beta.txt with DATE: Sun
WARNING: No fixes defined, atoms won't move (../verlet.cpp:55)
Neighbor list info ...
  update every 1 steps, delay 10 steps, check yes
  max neighbors/atom: 2000, page size: 100000
  master list distance cutoff = 7
  ghost atom cutoff = 7
  binsize = 3.5, bins = 29 29 29
  1 neighbor lists, perpetual/occasional/extra = 1 0 0
  (1) pair flare, perpetual
      attributes: half, newton off
      pair build: half/bin/newtoff
      stencil: half/bin/3d/newtoff
      bin: standard
Setting up Verlet run ...
  Unit style    : metal
  Current step  : 0
  Time step     : 0.001
Per MPI rank memory allocation (min/avg/max) = 4.034 | 4.221 | 4.409 Mbytes
Step Temp E_pair E_mol TotEng Press 
       0            0            0            0            0            0 
Loop time of 2.5e-06 on 2 procs for 0 steps with 2 atoms

80.0% CPU use with 2 MPI tasks x no OpenMP threads

MPI task timing breakdown:
Section |  min time  |  avg time  |  max time  |%varavg| %total
---------------------------------------------------------------
Pair    | 0          | 0          | 0          |   0.0 |  0.00
Neigh   | 0          | 0          | 0          |   0.0 |  0.00
Comm    | 0          | 0          | 0          |   0.0 |  0.00
Output  | 0          | 0          | 0          |   0.0 |  0.00
Modify  | 0          | 0          | 0          |   0.0 |  0.00
Other   |            | 2.5e-06    |            |       |100.00

Nlocal:    1 ave 2 max 0 min
Histogram: 1 0 0 0 0 0 0 0 0 1
Nghost:    7 ave 8 max 6 min
Histogram: 1 0 0 0 0 0 0 0 0 1
Neighs:    0.5 ave 1 max 0 min
Histogram: 1 0 0 0 0 0 0 0 0 1

Total # of neighbors = 1
Ave neighs/atom = 0.5
Neighbor list builds = 0
Dangerous builds = 0
Total wall time: 0:00:00
