Header of the LAMMPS data file

4 atoms
2 atom types

0.0 100.0  xlo xhi
0.0 100.0  ylo yhi
0.0 100.0  zlo zhi
0.0 0.0 0.0  xy xz yz

Masses

1 108
2 108

Atoms

1 1 0.0 0.0 0.0
2 1 0.13 0.76 0.31
3 2 -0.39 0.32 0.18
4 1 0.76 -0.52 0.22
