ITEM: TIMESTEP
0
ITEM: NUMBER OF ATOMS
4
ITEM: BOX BOUNDS xy xz yz pp pp pp
0.0000000000000000e+00 1.0000000000000000e+02 0.0000000000000000e+00
0.0000000000000000e+00 1.0000000000000000e+02 0.0000000000000000e+00
0.0000000000000000e+00 1.0000000000000000e+02 0.0000000000000000e+00
ITEM: ATOMS id type x y z fx fy fz 
1 1 0 0 0 1846.52 -1966.13 -1145.94 
2 1 0.13 0.76 0.31 846.569 1092.57 356.909 
3 2 99.61 0.32 0.18 -2891.32 1035.52 748.219 
4 1 0.76 99.48 0.22 198.226 -161.957 40.8105 
