ITEM: TIMESTEP
0
ITEM: NUMBER OF ATOMS
4
ITEM: BOX BOUNDS xy xz yz pp pp pp
0.0000000000000000e+00 1.0000000000000000e+02 0.0000000000000000e+00
0.0000000000000000e+00 1.0000000000000000e+02 0.0000000000000000e+00
0.0000000000000000e+00 1.0000000000000000e+02 0.0000000000000000e+00
ITEM: ATOMS id type x y z fx fy fz
1 1 0.0265474 0.683021 99.9358 -0.0152416 0.0311809 0.0178506
2 2 0.182227 99.5386 99.5744 -0.0792773 -0.280651 0.116362
3 1 0.691963 99.8308 99.3567 -0.146858 0.297489 0.0118342
4 2 99.8242 0.074608 99.3074 -0.156888 -0.127344 -0.286296
