LAMMPS (3 Mar 2020)
Reading data file ...
  triclinic box = (0 0 0) to (100 100 100) with tilt (0 0 0)
  1 by 1 by 2 MPI processor grid
  reading atoms ...
  4 atoms
  read_data CPU = 0.002537 secs
Reading potential file beta.txt with DATE: Sun
3570
3570
3570
3570
WARNING: No fixes defined, atoms won't move (../verlet.cpp:52)
Neighbor list info ...
  update every 1 steps, delay 10 steps, check yes
  max neighbors/atom: 2000, page size: 100000
  master list distance cutoff = 7
  ghost atom cutoff = 7
  binsize = 3.5, bins = 29 29 29
  1 neighbor lists, perpetual/occasional/extra = 1 0 0
  (1) pair flare, perpetual
      attributes: full, newton on
      pair build: full/bin/atomonly
      stencil: full/bin/3d
      bin: standard
Setting up Verlet run ...
  Unit style    : metal
  Current step  : 0
  Time step     : 0.001
Per MPI rank memory allocation (min/avg/max) = 4.286 | 4.348 | 4.411 Mbytes
Step Temp E_pair E_mol TotEng Press 
       0            0            0            0            0            0 
Loop time of 2e-06 on 2 procs for 0 steps with 4 atoms

125.0% CPU use with 2 MPI tasks x no OpenMP threads

MPI task timing breakdown:
Section |  min time  |  avg time  |  max time  |%varavg| %total
---------------------------------------------------------------
Pair    | 0          | 0          | 0          |   0.0 |  0.00
Neigh   | 0          | 0          | 0          |   0.0 |  0.00
Comm    | 0          | 0          | 0          |   0.0 |  0.00
Output  | 0          | 0          | 0          |   0.0 |  0.00
Modify  | 0          | 0          | 0          |   0.0 |  0.00
Other   |            | 2e-06      |            |       |100.00

Nlocal:    2 ave 4 max 0 min
Histogram: 1 0 0 0 0 0 0 0 0 1
Nghost:    14 ave 16 max 12 min
Histogram: 1 0 0 0 0 0 0 0 0 1
Neighs:    0 ave 0 max 0 min
Histogram: 2 0 0 0 0 0 0 0 0 0
FullNghs:  6 ave 12 max 0 min
Histogram: 1 0 0 0 0 0 0 0 0 1

Total # of neighbors = 12
Ave neighs/atom = 3
Neighbor list builds = 0
Dangerous builds = 0
Total wall time: 0:00:00
