Header of the LAMMPS data file

4 atoms
2 atom types

0.0 100.0  xlo xhi
0.0 100.0  ylo yhi
0.0 100.0  zlo zhi
0.0 0.0 0.0  xy xz yz

Masses

1 108
2 108

Atoms

1 1 0.0265474 0.683021 -0.0641653
2 2 0.182227 -0.461365 -0.425575
3 1 0.691963 -0.169211 -0.643345
4 2 -0.175838 0.074608 -0.69256
