ITEM: TIMESTEP
0
ITEM: NUMBER OF ATOMS
4
ITEM: BOX BOUNDS xy xz yz pp pp pp
0.0000000000000000e+00 1.0000000000000000e+02 0.0000000000000000e+00
0.0000000000000000e+00 1.0000000000000000e+02 0.0000000000000000e+00
0.0000000000000000e+00 1.0000000000000000e+02 0.0000000000000000e+00
ITEM: ATOMS id type x y z fx fy fz 
1 1 0.0265474 0.683021 99.9358 0.341964 -0.0868614 0.10917 
2 2 0.182227 99.5386 99.5744 -0.199607 -0.257339 0.290386 
3 1 0.691963 99.8308 99.3567 -0.108181 0.519866 0.0348018 
4 2 99.8242 0.074608 99.3074 -0.0341763 -0.175665 -0.434357 
