LAMMPS (3 Mar 2020)
Reading data file ...
  triclinic box = (0 0 0) to (100 100 100) with tilt (0 0 0)
  1 by 1 by 1 MPI processor grid
  reading atoms ...
  4 atoms
  read_data CPU = 0.005924 secs
WARNING: No fixes defined, atoms won't move (../verlet.cpp:52)
Neighbor list info ...
  update every 1 steps, delay 10 steps, check yes
  max neighbors/atom: 2000, page size: 100000
  master list distance cutoff = 7
  ghost atom cutoff = 7
  binsize = 3.5, bins = 29 29 29
  1 neighbor lists, perpetual/occasional/extra = 1 0 0
  (1) pair flare, perpetual
      attributes: full, newton off
      pair build: full/bin/atomonly
      stencil: full/bin/3d
      bin: standard
Setting up Verlet run ...
  Unit style    : metal
  Current step  : 0
  Time step     : 0.001
Testing single bond function.
Single bond values:
  9.53732
  3.35764
  5.03304
  7.77189
 -5.19663
  4.18743
 -7.53538
  4.45601
 -4.63297
 -15.8412
 -2.18374
 0.800467
 -9.46416
 -4.77816
 -5.71719
 -6.01377
  1.69244
 0.455986
 0.879699
   1.4409
 -1.04691
 0.642936
 -1.35295
 0.818122
-0.698814
 -2.83397
 -0.47558
 0.202743
 -1.66303
-0.896024
-0.906447
 -1.04646
  -8.9341
 -3.24472
 -4.72427
 -7.23642
  4.77924
  -3.9938
  7.04758
 -4.15471
  4.42764
   14.823
  1.98299
-0.706676
  8.87725
  4.44173
  5.43246
  5.64814
 -4.86143
 -1.34506
 -2.53026
 -4.12332
  2.97572
 -1.87205
  3.88227
 -2.34309
   2.0384
  8.13461
  1.34386
-0.567056
  4.78108
  2.56163
  2.63097
  3.01112
  7.20204
  2.90803
  3.83647
  5.70441
 -3.59189
  3.42888
 -5.64832
  3.29199
 -3.82709
 -11.9014
 -1.41443
 0.442777
 -7.19057
 -3.48001
 -4.60525
 -4.59643
  5.62232
  5.81783
  3.27253
 -7.09047
 -9.47207
  4.37173
  -4.1563
 -5.32804
  1.88607
  8.66641
 -8.42173
 -2.36917
 -6.08698
  2.88743
  1.67692
  4.62898
 0.602297
 0.623241
 0.350573
-0.759575
 -1.01471
 0.468326
-0.445248
-0.570772
 0.202047
 0.928398
-0.902187
  -0.2538
-0.652074
 0.309319
 0.179642
 0.495884
 -5.49327
 -5.68429
 -3.19742
  6.92773
  9.25467
 -4.27139
  4.06091
  5.20575
 -1.84278
  -8.4675
  8.22843
  2.31479
  5.94727
 -2.82116
 -1.63843
 -4.52273
 -1.77924
 -1.84111
 -1.03563
  2.24386
  2.99754
 -1.38348
  1.31531
  1.68612
-0.596866
 -2.74258
  2.66515
  0.74975
  1.92629
-0.913758
 -0.53068
 -1.46489
  5.11207
  5.28983
  2.97553
 -6.44698
 -8.61244
  3.97497
  -3.7791
  -4.8445
   1.7149
  7.87989
 -7.65742
 -2.15416
 -5.53456
  2.62538
  1.52473
  4.20888
Environment derivatives rows:
9
Environment derivatives columns:
160
Central derivatives:
  2.20359  -3.43927   3.15423  -10.3321  -25.8109  -1.86649   0.32519   -5.4256  -15.8396  -13.6198  -26.8089   3.17818  -5.01972   6.20942  -12.1927   11.0205 -0.488675  -0.23379  0.179407  -2.80398  -3.24664 -0.256079  0.844186  -1.41377  -3.08858 -0.609476  -3.94151  0.157041 -0.132408   1.82147  -2.17992    1.9002  -2.71715   3.53353  -3.23447   8.94252   25.1896   1.82828  0.282314   4.73846   14.6062   14.0979   25.7335  -3.29214   5.26236  -5.27281   11.3848  -10.3536   1.15165  0.813978  -0.62159   7.75926   9.73035  0.782873  -2.19614   3.92175   8.76508   2.26613    11.571 -0.581467  0.594702  -5.01547   6.23075  -5.46176   4.09476  -3.74213   3.42451  -5.06956  -23.2452  -1.69497  -1.93795  -2.82119  -11.1113  -15.2729  -22.5466   3.56631  -5.87713   2.66897  -9.08267   8.44026  -1.83394  -9.80622    -5.516  -6.22937   4.55421  -13.3115  -4.43415   2.56174   23.8573   19.1335   15.4973  -4.36101   6.42291   12.7186   18.9323  -31.7973  0.622275 -0.203294 -0.114353  -1.69986 -0.891475 -0.789386  -1.08027 -0.501455    2.8304   3.31172  0.433775 -0.812183 -0.198342   1.78297   2.27234  -2.73223   2.14268   9.94418    5.5936   5.64395  -5.04074   13.2788   4.07302  -2.83541  -23.1921  -18.1535  -15.6672   4.11308  -6.65532  -12.2465  -18.3931   31.3563  -1.76309  0.678331  0.381561   4.92676   2.50687   2.39037   3.13564   1.41011  -8.33605  -9.66727  -1.39401   2.36759  0.504542  -5.22847  -6.69029   8.13316  -3.03862  -10.3351  -5.81347  -3.93487   6.45086  -13.1696  -3.01813   3.62861   21.2322   15.2835   16.1447  -3.38746   7.32444   10.8602   16.8051  -30.0404
 0.895107  -2.99069   3.28853  -3.43927 -0.295691   7.44983    3.8387  -1.86649  -14.2653   10.2374   6.92954   15.1502  -2.01221   3.17818  -18.0353  -27.3204 -0.268014  -2.51127   0.13528  -0.23379  -1.50539 -0.224401  0.749813 -0.256079 -0.966144   2.21699  0.136861   3.35761  0.324373  0.157041  -1.63454  -4.56706  -1.07694   1.43646    -3.363   3.53353 -0.773453  -8.03512  -3.59624   1.82828   14.4265  -9.41003  -7.27043  -13.7196   2.30254  -3.29214   17.9533   25.7482  0.731205   6.75807 -0.463321  0.813978   3.93778  0.299069  -2.18877  0.782873   3.11893  -6.37855 -0.672047  -9.47856 -0.830681 -0.581467   5.03332    13.143   1.60152   2.87427   3.55926  -3.74213   3.70095   9.60299   2.87534  -1.69497  -14.7787    7.0044   8.14902   9.67022  -3.11683   3.56631  -17.6106   -21.236   1.50477  -10.1346   4.52595  -9.80622   5.93535  -2.73939   3.63828  -13.3115   28.9995   19.9083  -4.11617   10.9819  -5.27008  -4.36101   27.6542  -40.5746 -0.510585  -1.78082 0.0938281 -0.203294    1.7676 -0.815817  0.886371 -0.789386   2.88124   1.09719  0.565324   1.45953  0.162742 -0.812183   2.76212   -4.8997  -1.75809   9.60409  -4.58962   9.94418  -5.31415   2.45268  -3.34197   13.2788  -28.4305  -19.8951   4.45289  -10.6086   5.46077   4.11308  -27.1053   39.4063   1.44664    5.1969 -0.313076  0.678331  -5.11777   2.36205  -2.57283   2.39037  -8.53216  -3.33626  -1.57764  -4.28561 -0.413983   2.36759  -8.17795   14.4234   2.49323  -8.05067   4.77003  -10.3351   3.50133    -1.616   2.47641  -13.1696   26.7451   19.8356  -5.42779    9.5112   -6.0098  -3.38746     25.48   -35.966
  1.40878   3.28853  -16.0365   3.15423  -1.86649  -4.89682  -20.9966   -15.572  -6.43772  -18.3075    13.415  -18.8012   18.1043  -20.6175   5.94942   -7.8066 -0.334718   0.13528  -3.16911  0.179407 -0.256079 -0.981779  -3.22833  -3.13179 -0.594684  -2.27641   2.67182   -2.8531   3.90598  -3.55469   1.30683 -0.945823  -1.72852    -3.363   14.7992  -3.23447   1.82828   4.53419   20.0207   14.3217   6.38679   17.8351  -12.3397   17.9416  -16.4771   19.3955  -5.42494   7.61598  0.820773 -0.463321   9.02852  -0.62159  0.782873   2.82036   9.39735   8.89905   1.81134   6.77867  -7.58007   8.30219  -11.0558   10.2458   -3.7223   2.81805   2.59801   3.55926  -11.2714   3.42451  -1.69497  -3.48634  -17.1749   -10.767  -6.21209  -16.3941   9.29047  -15.4392   11.8607  -15.8722   3.92291  -7.03481  0.846433   4.52595  -15.6349    -5.516  -13.3115  -18.1436  -21.6161   22.1125   2.65057   17.6165   29.6682  -32.1306   15.1708   39.1592  -5.90749   9.40949 -0.287204 0.0938281  -1.89485 -0.114353 -0.789386  -2.23748   -2.0363   2.72693  0.157181   1.30472   3.74427  -3.28279    2.0343   4.00091 -0.745554  0.696886 -0.988928  -4.58962   15.1818    5.5936   13.2788   17.6013   21.2397  -21.4515  -2.64405  -17.4618  -28.7447   31.4614  -14.6473  -38.3436   5.72361  -9.32684  0.813735 -0.313076   5.57737  0.381561   2.39037   6.58275   6.04108  -8.02273 -0.475967  -3.90773   -11.009   9.71231  -5.97194  -11.8369   2.19209  -2.08723   1.40244   4.77003  -13.8476  -5.81347  -13.1696  -16.0049  -20.1222    19.506    2.6223   16.9932   26.0278  -29.4813   13.1088   35.9303  -5.18261   9.07656
Printing i
0
Printing itype
1
Printing i
1
Printing itype
1
Printing i
2
Printing itype
2
Printing i
3
Printing itype
1
Per MPI rank memory allocation (min/avg/max) = 4.457 | 4.457 | 4.457 Mbytes
Step Temp E_pair E_mol TotEng Press 
       0            0            0            0            0            0 
Loop time of 1e-06 on 1 procs for 0 steps with 4 atoms

200.0% CPU use with 1 MPI tasks x no OpenMP threads

MPI task timing breakdown:
Section |  min time  |  avg time  |  max time  |%varavg| %total
---------------------------------------------------------------
Pair    | 0          | 0          | 0          |   0.0 |  0.00
Neigh   | 0          | 0          | 0          |   0.0 |  0.00
Comm    | 0          | 0          | 0          |   0.0 |  0.00
Output  | 0          | 0          | 0          |   0.0 |  0.00
Modify  | 0          | 0          | 0          |   0.0 |  0.00
Other   |            | 1e-06      |            |       |100.00

Nlocal:    4 ave 4 max 4 min
Histogram: 1 0 0 0 0 0 0 0 0 0
Nghost:    28 ave 28 max 28 min
Histogram: 1 0 0 0 0 0 0 0 0 0
Neighs:    0 ave 0 max 0 min
Histogram: 1 0 0 0 0 0 0 0 0 0
FullNghs:  12 ave 12 max 12 min
Histogram: 1 0 0 0 0 0 0 0 0 0

Total # of neighbors = 12
Ave neighs/atom = 3
Neighbor list builds = 0
Dangerous builds = 0
Total wall time: 0:00:00
