
     Program PWSCF v.6.0 (svn rev. 13079) starts on 17Sep2018 at 18:37:11 

     This program is part of the open-source Quantum ESPRESSO suite
     for quantum simulation of materials; please cite
         "P. Giannozzi et al., J. Phys.:Condens. Matter 21 395502 (2009);
          URL http://www.quantum-espresso.org", 
     in publications or presentations arising from this work. More details at
     http://www.quantum-espresso.org/quote

     Parallel version (MPI), running on     1 processors
     Waiting for input...
     Reading input from standard input

     Current dimensions of program PWSCF are:
     Max number of different atomic species (ntypx) = 10
     Max number of k-points (npk) =  40000
     Max angular momentum in pseudopotentials (lmaxx) =  3
               file C.pz-rrkjus.UPF: wavefunction(s)  2S renormalized

     Subspace diagonalization in iterative solution of the eigenvalue problem:
     a serial algorithm will be used


     G-vector sticks info
     --------------------
     sticks:   dense  smooth     PW     G-vecs:    dense   smooth      PW
     Sum         925     451    151                18197     6423    1243



     bravais-lattice index     =            0
     lattice parameter (alat)  =       4.7116  a.u.
     unit-cell volume          =      73.9577 (a.u.)^3
     number of atoms/cell      =            2
     number of atomic types    =            1
     number of electrons       =         8.00
     number of Kohn-Sham states=            4
     kinetic-energy cutoff     =      75.0000  Ry
     charge density cutoff     =     600.0000  Ry
     convergence threshold     =      1.0E-10
     mixing beta               =       0.7000
     number of iterations used =            8  plain     mixing
     Exchange-correlation      =  SLA  PZ   NOGX NOGC ( 1  1  0  0 0 0)

     celldm(1)=   4.711576  celldm(2)=   0.000000  celldm(3)=   0.000000
     celldm(4)=   0.000000  celldm(5)=   0.000000  celldm(6)=   0.000000

     crystal axes: (cart. coord. in units of alat)
               a(1) = (   0.000000   0.707107   0.707107 )  
               a(2) = (   0.707107   0.000000   0.707107 )  
               a(3) = (   0.707107   0.707107   0.000000 )  

     reciprocal axes: (cart. coord. in units 2 pi/alat)
               b(1) = ( -0.707107  0.707107  0.707107 )  
               b(2) = (  0.707107 -0.707107  0.707107 )  
               b(3) = (  0.707107  0.707107 -0.707107 )  


     PseudoPot. # 1 for C  read from file:
     /Users/jonpvandermause/AP275/qe-6.0/pseudo/C.pz-rrkjus.UPF
     MD5 check sum: 53020fac754469c285cb7b8c67c09e81
     Pseudo is Ultrasoft, Zval =  4.0
     Generated by new atomic code, or converted to UPF format
     Using radial grid of 1425 points,  4 beta functions with: 
                l(1) =   0
                l(2) =   0
                l(3) =   1
                l(4) =   1
     Q(r) pseudized with 0 coefficients 


     atomic species   valence    mass     pseudopotential
        C              4.00    12.01100     C ( 1.00)

     48 Sym. Ops., with inversion, found (24 have fractional translation)



   Cartesian axes

     site n.     atom                  positions (alat units)
         1           C   tau(   1) = (   0.0000000   0.0000000   0.0000000  )
         2           C   tau(   2) = (   0.3535534   0.3535534   0.3535534  )

     number of k points=   752

     Number of k-points >= 100: set verbosity='high' to print them.

     Dense  grid:    18197 G-vectors     FFT dimensions: (  40,  40,  40)

     Smooth grid:     6423 G-vectors     FFT dimensions: (  25,  25,  25)

     Estimated max dynamical RAM per process >      49.47Mb

     Initial potential from superposition of free atoms

     starting charge    7.99992, renormalised to    8.00000
     Starting wfc are    8 randomized atomic wfcs

     total cpu time spent up to now is        2.8 secs

     Self-consistent Calculation

     iteration #  1     ecut=    75.00 Ry     beta=0.70
     Davidson diagonalization with overlap
     ethr =  1.00E-02,  avg # of iterations =  2.9

     total cpu time spent up to now is        7.5 secs

     total energy              =     -22.84078727 Ry
     Harris-Foulkes estimate   =     -22.91142318 Ry
     estimated scf accuracy    <       0.13041472 Ry

     iteration #  2     ecut=    75.00 Ry     beta=0.70
     Davidson diagonalization with overlap
     ethr =  1.63E-03,  avg # of iterations =  1.9

     total cpu time spent up to now is       11.1 secs

     total energy              =     -22.85467471 Ry
     Harris-Foulkes estimate   =     -22.85637879 Ry
     estimated scf accuracy    <       0.00431257 Ry

     iteration #  3     ecut=    75.00 Ry     beta=0.70
     Davidson diagonalization with overlap
     ethr =  5.39E-05,  avg # of iterations =  3.1

     total cpu time spent up to now is       16.5 secs

     total energy              =     -22.85851397 Ry
     Harris-Foulkes estimate   =     -22.85875364 Ry
     estimated scf accuracy    <       0.00042611 Ry

     iteration #  4     ecut=    75.00 Ry     beta=0.70
     Davidson diagonalization with overlap
     ethr =  5.33E-06,  avg # of iterations =  2.8

     total cpu time spent up to now is       21.3 secs

     total energy              =     -22.85860080 Ry
     Harris-Foulkes estimate   =     -22.85861282 Ry
     estimated scf accuracy    <       0.00002408 Ry

     iteration #  5     ecut=    75.00 Ry     beta=0.70
     Davidson diagonalization with overlap
     ethr =  3.01E-07,  avg # of iterations =  2.4

     total cpu time spent up to now is       25.5 secs

     total energy              =     -22.85860539 Ry
     Harris-Foulkes estimate   =     -22.85860539 Ry
     estimated scf accuracy    <       0.00000002 Ry

     iteration #  6     ecut=    75.00 Ry     beta=0.70
     Davidson diagonalization with overlap
     ethr =  3.00E-10,  avg # of iterations =  4.9

     total cpu time spent up to now is       33.0 secs

     total energy              =     -22.85860677 Ry
     Harris-Foulkes estimate   =     -22.85860595 Ry
     estimated scf accuracy    <       0.00000005 Ry

     iteration #  7     ecut=    75.00 Ry     beta=0.70
     Davidson diagonalization with overlap
     ethr =  3.00E-10,  avg # of iterations =  2.9

     total cpu time spent up to now is       37.9 secs

     End of self-consistent calculation

     Number of k-points >= 100: set verbosity='high' to print the bands.

     highest occupied level (ev):    13.6817

!    total energy              =     -22.85860678 Ry
     Harris-Foulkes estimate   =     -22.85860678 Ry
     estimated scf accuracy    <          4.5E-11 Ry

     The total energy is the sum of the following terms:

     one-electron contribution =       8.25884675 Ry
     hartree contribution      =       1.88080989 Ry
     xc contribution           =      -7.12808075 Ry
     ewald contribution        =     -25.87018266 Ry

     convergence has been achieved in   7 iterations

     Forces acting on atoms (Ry/au):

     atom    1 type  1   force =     0.00000000   -0.00000000   -0.00000000
     atom    2 type  1   force =     0.00000000   -0.00000000    0.00000000

     Total force =     0.000000     Total SCF correction =     0.000000


     entering subroutine stress ...

          total   stress  (Ry/bohr**3)                   (kbar)     P=    2.88
   0.00001961  -0.00000000  -0.00000000          2.88     -0.00     -0.00
   0.00000000   0.00001961  -0.00000000          0.00      2.88     -0.00
  -0.00000000  -0.00000000   0.00001961         -0.00     -0.00      2.88


     Writing output data file pwscf.save

     init_run     :      2.63s CPU      2.73s WALL (       1 calls)
     electrons    :     33.44s CPU     35.07s WALL (       1 calls)
     forces       :      0.29s CPU      0.31s WALL (       1 calls)
     stress       :      1.24s CPU      1.26s WALL (       1 calls)

     Called by init_run:
     wfcinit      :      2.36s CPU      2.43s WALL (       1 calls)
     potinit      :      0.01s CPU      0.01s WALL (       1 calls)

     Called by electrons:
     c_bands      :     29.50s CPU     30.98s WALL (       7 calls)
     sum_band     :      3.84s CPU      3.94s WALL (       7 calls)
     v_of_rho     :      0.03s CPU      0.03s WALL (       8 calls)
     newd         :      0.05s CPU      0.07s WALL (       8 calls)
     mix_rho      :      0.02s CPU      0.02s WALL (       7 calls)

     Called by c_bands:
     init_us_2    :      1.40s CPU      1.42s WALL (   12784 calls)
     cegterg      :     27.68s CPU     29.08s WALL (    5264 calls)

     Called by sum_band:
     sum_band:bec :      0.01s CPU      0.01s WALL (    5264 calls)
     addusdens    :      0.05s CPU      0.06s WALL (       7 calls)

     Called by *egterg:
     h_psi        :     22.64s CPU     23.54s WALL (   21612 calls)
     s_psi        :      1.77s CPU      1.87s WALL (   21612 calls)
     g_psi        :      0.31s CPU      0.33s WALL (   15596 calls)
     cdiaghg      :      0.77s CPU      0.78s WALL (   20860 calls)

     Called by h_psi:
     h_psi:pot    :     22.23s CPU     23.13s WALL (   21612 calls)
     h_psi:calbec :      0.90s CPU      0.94s WALL (   21612 calls)
     vloc_psi     :     19.71s CPU     20.29s WALL (   21612 calls)
     add_vuspsi   :      1.54s CPU      1.71s WALL (   21612 calls)

     General routines
     calbec       :      1.25s CPU      1.29s WALL (   30636 calls)
     fft          :      0.06s CPU      0.07s WALL (      73 calls)
     ffts         :      0.00s CPU      0.00s WALL (      15 calls)
     fftw         :     18.47s CPU     18.98s WALL (  173520 calls)
     interpolate  :      0.02s CPU      0.02s WALL (      15 calls)
     davcio       :      0.00s CPU      0.07s WALL (     752 calls)

     Parallel routines
     fft_scatter  :      1.41s CPU      1.52s WALL (  173608 calls)

     PWSCF        :    38.41s CPU        40.65s WALL


   This run was terminated on:  18:37:52  17Sep2018            

=------------------------------------------------------------------------------=
   JOB DONE.
=------------------------------------------------------------------------------=
