
     Program PWSCF v.6.2 starts on 28Mar2019 at 12:33:59 

     This program is part of the open-source Quantum ESPRESSO suite
     for quantum simulation of materials; please cite
         "P. Giannozzi et al., J. Phys.:Condens. Matter 21 395502 (2009);
         "P. Giannozzi et al., J. Phys.:Condens. Matter 29 465901 (2017);
          URL http://www.quantum-espresso.org", 
     in publications or presentations arising from this work. More details at
     http://www.quantum-espresso.org/quote

     Parallel version (MPI), running on   128 processors

     MPI processes distributed on     4 nodes
     K-points division:     npool     =       4
     R & G space division:  proc/nbgrp/npool/nimage =      32
     Waiting for input...
     Reading input from standard input

     Current dimensions of program PWSCF are:
     Max number of different atomic species (ntypx) = 10
     Max number of k-points (npk) =  40000
     Max angular momentum in pseudopotentials (lmaxx) =  3
               file Al.pbe-n-kjpaw_psl.1.0.0.UPF: wavefunction(s)  3S 3P renormalized

     Subspace diagonalization in iterative solution of the eigenvalue problem:
     a serial algorithm will be used


     Parallelization info
     --------------------
     sticks:   dense  smooth     PW     G-vecs:    dense   smooth      PW
     Min          82      67     18                 3227     2355     344
     Max          84      68     19                 3230     2358     349
     Sum        2661    2161    593               103311    75421   11067



     bravais-lattice index     =            0
     lattice parameter (alat)  =      15.2917  a.u.
     unit-cell volume          =    3575.7260 (a.u.)^3
     number of atoms/cell      =           32
     number of atomic types    =            1
     number of electrons       =        96.00
     number of Kohn-Sham states=           58
     kinetic-energy cutoff     =      29.0000  Ry
     charge density cutoff     =     143.0000  Ry
     convergence threshold     =      1.0E-10
     mixing beta               =       0.7000
     number of iterations used =            8  plain     mixing
     Exchange-correlation      = SLA PW PBX PBC ( 1  4  3  4 0 0)

     celldm(1)=  15.291664  celldm(2)=   0.000000  celldm(3)=   0.000000
     celldm(4)=   0.000000  celldm(5)=   0.000000  celldm(6)=   0.000000

     crystal axes: (cart. coord. in units of alat)
               a(1) = (   1.000000   0.000000   0.000000 )  
               a(2) = (   0.000000   1.000000   0.000000 )  
               a(3) = (   0.000000   0.000000   1.000000 )  

     reciprocal axes: (cart. coord. in units 2 pi/alat)
               b(1) = (  1.000000  0.000000  0.000000 )  
               b(2) = (  0.000000  1.000000  0.000000 )  
               b(3) = (  0.000000  0.000000  1.000000 )  


     PseudoPot. # 1 for Al read from file:
     /n/home03/jonpvandermause/qe-6.2.1/pseudo/Al.pbe-n-kjpaw_psl.1.0.0.UPF
     MD5 check sum: 502b6b27b9c6270cab5dd1084b96fa6d
     Pseudo is Projector augmented-wave + core cor, Zval =  3.0
     Generated using "atomic" code by A. Dal Corso v.6.3
     Shape of augmentation charge: PSQ
     Using radial grid of 1135 points,  6 beta functions with: 
                l(1) =   0
                l(2) =   0
                l(3) =   1
                l(4) =   1
                l(5) =   2
                l(6) =   2
     Q(r) pseudized with 0 coefficients 


     atomic species   valence    mass     pseudopotential
        Al             3.00    27.00000     Al( 1.00)

     No symmetry found



   Cartesian axes

     site n.     atom                  positions (alat units)
         1           Al  tau(   1) = (   0.0024456  -0.0002410  -0.0063000  )
         2           Al  tau(   2) = (   0.2321218   0.2412531   0.0199197  )
         3           Al  tau(   3) = (   0.0044439   0.2634305   0.2371070  )
         4           Al  tau(   4) = (   0.2317721  -0.0047195   0.2260208  )
         5           Al  tau(   5) = (  -0.0205870   0.0000754   0.4892042  )
         6           Al  tau(   6) = (   0.2459664   0.2559095   0.4777669  )
         7           Al  tau(   7) = (   0.0239879   0.2662580   0.7437395  )
         8           Al  tau(   8) = (   0.2281105   0.0065398   0.7291016  )
         9           Al  tau(   9) = (   0.0072603   0.4944390  -0.0165027  )
        10           Al  tau(  10) = (   0.2678843   0.7345180   0.0127323  )
        11           Al  tau(  11) = (  -0.0019983   0.7262061   0.2393673  )
        12           Al  tau(  12) = (   0.2482093   0.5228127   0.2690077  )
        13           Al  tau(  13) = (  -0.0173196   0.5109713   0.5239656  )
        14           Al  tau(  14) = (   0.2436357   0.7410690   0.5078473  )
        15           Al  tau(  15) = (   0.0004226   0.7498356   0.7626112  )
        16           Al  tau(  16) = (   0.2251520   0.5168166   0.7351582  )
        17           Al  tau(  17) = (   0.4913075  -0.0221552  -0.0246565  )
        18           Al  tau(  18) = (   0.7374333   0.2407934   0.0238359  )
        19           Al  tau(  19) = (   0.5182254   0.2664162   0.2581859  )
        20           Al  tau(  20) = (   0.7323406  -0.0142870   0.2391522  )
        21           Al  tau(  21) = (   0.5067919  -0.0234417   0.4881340  )
        22           Al  tau(  22) = (   0.7500791   0.2587321   0.4781587  )
        23           Al  tau(  23) = (   0.5226285   0.2345526   0.7626372  )
        24           Al  tau(  24) = (   0.7473208  -0.0229115   0.7665942  )
        25           Al  tau(  25) = (   0.4979474   0.5065732  -0.0143191  )
        26           Al  tau(  26) = (   0.7325136   0.7355759   0.0056278  )
        27           Al  tau(  27) = (   0.5242795   0.7296391   0.2416967  )
        28           Al  tau(  28) = (   0.7647467   0.4919056   0.2637593  )
        29           Al  tau(  29) = (   0.4931488   0.4779634   0.4933675  )
        30           Al  tau(  30) = (   0.7608403   0.7267536   0.4762185  )
        31           Al  tau(  31) = (   0.5031476   0.7429066   0.7521960  )
        32           Al  tau(  32) = (   0.7434231   0.5202397   0.7635504  )

     number of k points=   172  Methfessel-Paxton smearing, width (Ry)=  0.0100

     Number of k-points >= 100: set verbosity='high' to print them.

     Dense  grid:   103311 G-vectors     FFT dimensions: (  60,  60,  60)

     Smooth grid:    75421 G-vectors     FFT dimensions: (  54,  54,  54)

     Estimated max dynamical RAM per process >      32.14 MB

     Estimated total dynamical RAM >       4.02 GB

     Initial potential from superposition of free atoms

     starting charge   95.92671, renormalised to   96.00000
     Starting wfc are  128 randomized atomic wfcs
     Checking if some PAW data can be deallocated... 

     total cpu time spent up to now is       22.0 secs

     Self-consistent Calculation

     iteration #  1     ecut=    29.00 Ry     beta= 0.70
     Davidson diagonalization with overlap
     ethr =  1.00E-02,  avg # of iterations =  3.0

     Threshold (ethr) on eigenvalues was too large:
     Diagonalizing with lowered threshold

     Davidson diagonalization with overlap
     ethr =  4.02E-04,  avg # of iterations =  3.2

     total cpu time spent up to now is       74.9 secs

     total energy              =   -1263.70281265 Ry
     Harris-Foulkes estimate   =   -1263.95372802 Ry
     estimated scf accuracy    <       0.43655177 Ry

     iteration #  2     ecut=    29.00 Ry     beta= 0.70
     Davidson diagonalization with overlap
     ethr =  4.55E-04,  avg # of iterations =  4.7

     total cpu time spent up to now is      130.7 secs

     total energy              =   -1263.39733398 Ry
     Harris-Foulkes estimate   =   -1264.22434038 Ry
     estimated scf accuracy    <       2.83766597 Ry

     iteration #  3     ecut=    29.00 Ry     beta= 0.70
     Davidson diagonalization with overlap
     ethr =  4.55E-04,  avg # of iterations =  4.2

     total cpu time spent up to now is      158.8 secs

     total energy              =   -1263.80816289 Ry
     Harris-Foulkes estimate   =   -1263.89243945 Ry
     estimated scf accuracy    <       0.27809467 Ry

     iteration #  4     ecut=    29.00 Ry     beta= 0.70
     Davidson diagonalization with overlap
     ethr =  2.90E-04,  avg # of iterations =  2.1

     total cpu time spent up to now is      175.2 secs

     total energy              =   -1263.84401039 Ry
     Harris-Foulkes estimate   =   -1263.86602308 Ry
     estimated scf accuracy    <       0.05179987 Ry

     iteration #  5     ecut=    29.00 Ry     beta= 0.70
     Davidson diagonalization with overlap
     ethr =  5.40E-05,  avg # of iterations =  3.0

     total cpu time spent up to now is      194.0 secs

     total energy              =   -1263.85472343 Ry
     Harris-Foulkes estimate   =   -1263.85588413 Ry
     estimated scf accuracy    <       0.00211424 Ry

     iteration #  6     ecut=    29.00 Ry     beta= 0.70
     Davidson diagonalization with overlap
     ethr =  2.20E-06,  avg # of iterations =  7.3

     total cpu time spent up to now is      229.9 secs

     total energy              =   -1263.85526492 Ry
     Harris-Foulkes estimate   =   -1263.85619592 Ry
     estimated scf accuracy    <       0.00339028 Ry

     iteration #  7     ecut=    29.00 Ry     beta= 0.70
     Davidson diagonalization with overlap
     ethr =  2.20E-06,  avg # of iterations =  2.2

     total cpu time spent up to now is      246.7 secs

     total energy              =   -1263.85571605 Ry
     Harris-Foulkes estimate   =   -1263.85579840 Ry
     estimated scf accuracy    <       0.00031664 Ry

     iteration #  8     ecut=    29.00 Ry     beta= 0.70
     Davidson diagonalization with overlap
     ethr =  3.30E-07,  avg # of iterations =  2.4

     total cpu time spent up to now is      262.0 secs

     total energy              =   -1263.85574728 Ry
     Harris-Foulkes estimate   =   -1263.85575696 Ry
     estimated scf accuracy    <       0.00004066 Ry

     iteration #  9     ecut=    29.00 Ry     beta= 0.70
     Davidson diagonalization with overlap
     ethr =  4.24E-08,  avg # of iterations =  3.2

     total cpu time spent up to now is      281.9 secs

     total energy              =   -1263.85575539 Ry
     Harris-Foulkes estimate   =   -1263.85575893 Ry
     estimated scf accuracy    <       0.00001109 Ry

     iteration # 10     ecut=    29.00 Ry     beta= 0.70
     Davidson diagonalization with overlap
     ethr =  1.16E-08,  avg # of iterations =  2.5

     total cpu time spent up to now is      298.9 secs

     total energy              =   -1263.85575736 Ry
     Harris-Foulkes estimate   =   -1263.85575803 Ry
     estimated scf accuracy    <       0.00000243 Ry

     iteration # 11     ecut=    29.00 Ry     beta= 0.70
     Davidson diagonalization with overlap
     ethr =  2.53E-09,  avg # of iterations =  2.4

     total cpu time spent up to now is      314.8 secs

     total energy              =   -1263.85575760 Ry
     Harris-Foulkes estimate   =   -1263.85575774 Ry
     estimated scf accuracy    <       0.00000041 Ry

     iteration # 12     ecut=    29.00 Ry     beta= 0.70
     Davidson diagonalization with overlap
     ethr =  4.24E-10,  avg # of iterations =  3.2

     total cpu time spent up to now is      334.0 secs

     total energy              =   -1263.85575768 Ry
     Harris-Foulkes estimate   =   -1263.85575772 Ry
     estimated scf accuracy    <       0.00000012 Ry

     iteration # 13     ecut=    29.00 Ry     beta= 0.70
     Davidson diagonalization with overlap
     ethr =  1.23E-10,  avg # of iterations =  2.4

     total cpu time spent up to now is      350.9 secs

     total energy              =   -1263.85575770 Ry
     Harris-Foulkes estimate   =   -1263.85575771 Ry
     estimated scf accuracy    <       0.00000004 Ry

     iteration # 14     ecut=    29.00 Ry     beta= 0.70
     Davidson diagonalization with overlap
     ethr =  4.41E-11,  avg # of iterations =  2.2

     total cpu time spent up to now is      370.1 secs

     total energy              =   -1263.85575771 Ry
     Harris-Foulkes estimate   =   -1263.85575771 Ry
     estimated scf accuracy    <          3.5E-09 Ry

     iteration # 15     ecut=    29.00 Ry     beta= 0.70
     Davidson diagonalization with overlap
     ethr =  3.65E-12,  avg # of iterations =  3.4

     total cpu time spent up to now is      391.1 secs

     total energy              =   -1263.85575771 Ry
     Harris-Foulkes estimate   =   -1263.85575771 Ry
     estimated scf accuracy    <          2.4E-09 Ry

     iteration # 16     ecut=    29.00 Ry     beta= 0.70
     Davidson diagonalization with overlap
     ethr =  2.49E-12,  avg # of iterations =  2.0

     total cpu time spent up to now is      406.6 secs

     total energy              =   -1263.85575771 Ry
     Harris-Foulkes estimate   =   -1263.85575771 Ry
     estimated scf accuracy    <          9.3E-10 Ry

     iteration # 17     ecut=    29.00 Ry     beta= 0.70
     Davidson diagonalization with overlap
     ethr =  9.68E-13,  avg # of iterations =  3.1

     total cpu time spent up to now is      424.8 secs

     total energy              =   -1263.85575771 Ry
     Harris-Foulkes estimate   =   -1263.85575771 Ry
     estimated scf accuracy    <          6.1E-10 Ry

     iteration # 18     ecut=    29.00 Ry     beta= 0.70
     Davidson diagonalization with overlap
     ethr =  6.38E-13,  avg # of iterations =  2.0

     total cpu time spent up to now is      440.4 secs

     End of self-consistent calculation

     Number of k-points >= 100: set verbosity='high' to print the bands.

     the Fermi energy is     7.8120 ev

!    total energy              =   -1263.85575771 Ry
     Harris-Foulkes estimate   =   -1263.85575771 Ry
     estimated scf accuracy    <          6.4E-11 Ry

     total all-electron energy =    -15540.424724 Ry

     The total energy is the sum of the following terms:

     one-electron contribution =      98.78966562 Ry
     hartree contribution      =       1.29570716 Ry
     xc contribution           =     -83.09400285 Ry
     ewald contribution        =    -170.97988136 Ry
     one-center paw contrib.   =   -1109.86736784 Ry
     smearing contrib. (-TS)   =       0.00012155 Ry

     convergence has been achieved in  18 iterations

     Forces acting on atoms (cartesian axes, Ry/au):

     atom    1 type  1   force =    -0.02233683   -0.00748169   -0.00165798
     atom    2 type  1   force =     0.05212422    0.02312078   -0.03778392
     atom    3 type  1   force =    -0.01337309   -0.01096230    0.02771171
     atom    4 type  1   force =     0.02418162   -0.01383426    0.04200891
     atom    5 type  1   force =     0.00580800   -0.00233281   -0.00216245
     atom    6 type  1   force =     0.00226652   -0.02109977    0.01261703
     atom    7 type  1   force =    -0.03985767   -0.03044840   -0.00142337
     atom    8 type  1   force =     0.02727307   -0.00291265    0.00591156
     atom    9 type  1   force =    -0.01613314    0.00456465    0.02600658
     atom   10 type  1   force =    -0.02856036    0.01238409   -0.01860647
     atom   11 type  1   force =     0.00284973    0.03608184   -0.00431567
     atom   12 type  1   force =     0.00661685   -0.03355402   -0.02310963
     atom   13 type  1   force =     0.01661231   -0.02525147   -0.02939823
     atom   14 type  1   force =     0.00778329    0.03687348   -0.01369433
     atom   15 type  1   force =    -0.00874063    0.02190944   -0.00409290
     atom   16 type  1   force =     0.06242079   -0.02193720    0.02343449
     atom   17 type  1   force =    -0.01546382    0.02744567    0.03166329
     atom   18 type  1   force =     0.02145756    0.00553944   -0.03417763
     atom   19 type  1   force =    -0.04901399   -0.03208095   -0.02981567
     atom   20 type  1   force =     0.02064409    0.01134944    0.00291625
     atom   21 type  1   force =    -0.01427212    0.01563948    0.01131132
     atom   22 type  1   force =     0.01694766   -0.03454247    0.05355767
     atom   23 type  1   force =    -0.02041372    0.01328050   -0.02242366
     atom   24 type  1   force =     0.01376353    0.01981883   -0.02965299
     atom   25 type  1   force =    -0.01413070   -0.04726425    0.01611515
     atom   26 type  1   force =     0.04701729    0.01193934   -0.00189133
     atom   27 type  1   force =    -0.04392430    0.00406743    0.02509312
     atom   28 type  1   force =    -0.00708505    0.00197555   -0.04363573
     atom   29 type  1   force =     0.00625501    0.03282089    0.03780919
     atom   30 type  1   force =    -0.02644457    0.04498712    0.04187547
     atom   31 type  1   force =    -0.02266389    0.00009593   -0.03728324
     atom   32 type  1   force =     0.00839234   -0.04019165   -0.02290654

     Total force =     0.252458     Total SCF correction =     0.000010


     Computing stress (Cartesian axis) and pressure

          total   stress  (Ry/bohr**3)                   (kbar)     P=   28.19
   0.00018304  -0.00002559  -0.00001645         26.93     -3.76     -2.42
  -0.00002559   0.00020288   0.00000030         -3.76     29.85      0.04
  -0.00001645   0.00000030   0.00018889         -2.42      0.04     27.79


     Writing output data file pwscf.save

     init_run     :     16.21s CPU     21.17s WALL (       1 calls)
     electrons    :    371.97s CPU    418.52s WALL (       1 calls)
     forces       :      5.60s CPU      5.91s WALL (       1 calls)
     stress       :      7.00s CPU      7.16s WALL (       1 calls)

     Called by init_run:
     wfcinit      :     10.89s CPU     11.30s WALL (       1 calls)
     potinit      :      0.10s CPU      0.15s WALL (       1 calls)

     Called by electrons:
     c_bands      :    334.41s CPU    375.84s WALL (      19 calls)
     sum_band     :     34.27s CPU     38.27s WALL (      19 calls)
     v_of_rho     :      0.14s CPU      0.30s WALL (      19 calls)
     newd         :      1.27s CPU      1.31s WALL (      19 calls)
     PAW_pot      :      1.61s CPU      1.93s WALL (      19 calls)
     mix_rho      :      0.04s CPU      0.08s WALL (      19 calls)

     Called by c_bands:
     init_us_2    :      1.43s CPU      1.48s WALL (    1763 calls)
     cegterg      :    304.06s CPU    321.90s WALL (     817 calls)

     Called by sum_band:
     sum_band:bec :      1.29s CPU      1.32s WALL (     817 calls)
     addusdens    :      0.86s CPU      0.90s WALL (      19 calls)

     Called by *egterg:
     h_psi        :    162.96s CPU    173.97s WALL (    3518 calls)
     s_psi        :     59.18s CPU     59.44s WALL (    3518 calls)
     g_psi        :      0.10s CPU      0.11s WALL (    2658 calls)
     cdiaghg      :     55.31s CPU     56.14s WALL (    3432 calls)

     Called by h_psi:
     h_psi:pot    :    162.69s CPU    173.68s WALL (    3518 calls)
     h_psi:calbec :     63.40s CPU     67.19s WALL (    3518 calls)
     vloc_psi     :     41.00s CPU     47.87s WALL (    3518 calls)
     add_vuspsi   :     58.26s CPU     58.59s WALL (    3518 calls)

     General routines
     calbec       :     91.58s CPU     96.66s WALL (    4550 calls)
     fft          :      0.15s CPU      0.45s WALL (     329 calls)
     ffts         :      0.04s CPU      0.09s WALL (      38 calls)
     fftw         :     45.91s CPU     53.72s WALL (  313762 calls)
     interpolate  :      0.06s CPU      0.15s WALL (      38 calls)

     Parallel routines
     fft_scatt_xy :      1.94s CPU      2.05s WALL (  314129 calls)
     fft_scatt_yz :     17.36s CPU     23.80s WALL (  314129 calls)

     PWSCF        :  6m43.88s CPU     7m44.47s WALL


   This run was terminated on:  12:41:44  28Mar2019            

=------------------------------------------------------------------------------=
   JOB DONE.
=------------------------------------------------------------------------------=
