
     Program PWSCF v.6.2 starts on 28Mar2019 at 11:15:52 

     This program is part of the open-source Quantum ESPRESSO suite
     for quantum simulation of materials; please cite
         "P. Giannozzi et al., J. Phys.:Condens. Matter 21 395502 (2009);
         "P. Giannozzi et al., J. Phys.:Condens. Matter 29 465901 (2017);
          URL http://www.quantum-espresso.org", 
     in publications or presentations arising from this work. More details at
     http://www.quantum-espresso.org/quote

     Parallel version (MPI), running on   128 processors

     MPI processes distributed on     4 nodes
     K-points division:     npool     =       4
     R & G space division:  proc/nbgrp/npool/nimage =      32
     Waiting for input...
     Reading input from standard input

     Current dimensions of program PWSCF are:
     Max number of different atomic species (ntypx) = 10
     Max number of k-points (npk) =  40000
     Max angular momentum in pseudopotentials (lmaxx) =  3
               file Al.pbe-n-kjpaw_psl.1.0.0.UPF: wavefunction(s)  3S 3P renormalized

     Subspace diagonalization in iterative solution of the eigenvalue problem:
     a serial algorithm will be used


     Parallelization info
     --------------------
     sticks:   dense  smooth     PW     G-vecs:    dense   smooth      PW
     Min          82      67     18                 3227     2355     344
     Max          84      68     19                 3230     2358     349
     Sum        2661    2161    593               103311    75421   11067



     bravais-lattice index     =            0
     lattice parameter (alat)  =      15.2917  a.u.
     unit-cell volume          =    3575.7260 (a.u.)^3
     number of atoms/cell      =           32
     number of atomic types    =            1
     number of electrons       =        96.00
     number of Kohn-Sham states=           58
     kinetic-energy cutoff     =      29.0000  Ry
     charge density cutoff     =     143.0000  Ry
     convergence threshold     =      1.0E-10
     mixing beta               =       0.7000
     number of iterations used =            8  plain     mixing
     Exchange-correlation      = SLA PW PBX PBC ( 1  4  3  4 0 0)

     celldm(1)=  15.291664  celldm(2)=   0.000000  celldm(3)=   0.000000
     celldm(4)=   0.000000  celldm(5)=   0.000000  celldm(6)=   0.000000

     crystal axes: (cart. coord. in units of alat)
               a(1) = (   1.000000   0.000000   0.000000 )  
               a(2) = (   0.000000   1.000000   0.000000 )  
               a(3) = (   0.000000   0.000000   1.000000 )  

     reciprocal axes: (cart. coord. in units 2 pi/alat)
               b(1) = (  1.000000  0.000000  0.000000 )  
               b(2) = (  0.000000  1.000000  0.000000 )  
               b(3) = (  0.000000  0.000000  1.000000 )  


     PseudoPot. # 1 for Al read from file:
     /n/home03/jonpvandermause/qe-6.2.1/pseudo/Al.pbe-n-kjpaw_psl.1.0.0.UPF
     MD5 check sum: 502b6b27b9c6270cab5dd1084b96fa6d
     Pseudo is Projector augmented-wave + core cor, Zval =  3.0
     Generated using "atomic" code by A. Dal Corso v.6.3
     Shape of augmentation charge: PSQ
     Using radial grid of 1135 points,  6 beta functions with: 
                l(1) =   0
                l(2) =   0
                l(3) =   1
                l(4) =   1
                l(5) =   2
                l(6) =   2
     Q(r) pseudized with 0 coefficients 


     atomic species   valence    mass     pseudopotential
        Al             3.00    27.00000     Al( 1.00)

     No symmetry found



   Cartesian axes

     site n.     atom                  positions (alat units)
         1           Al  tau(   1) = (   0.0024073  -0.0013631  -0.0039731  )
         2           Al  tau(   2) = (   0.2524036   0.2540608   0.0020428  )
         3           Al  tau(   3) = (   0.0034837   0.2462865   0.2541522  )
         4           Al  tau(   4) = (   0.2534367  -0.0014656   0.2489558  )
         5           Al  tau(   5) = (   0.0046700   0.0042215   0.4958366  )
         6           Al  tau(   6) = (   0.2505561   0.2464236   0.4996268  )
         7           Al  tau(   7) = (   0.0002521   0.2543265   0.7478930  )
         8           Al  tau(   8) = (   0.2535714   0.0024827   0.7467981  )
         9           Al  tau(   9) = (   0.0009095   0.4982946   0.0036876  )
        10           Al  tau(  10) = (   0.2511357   0.7461480   0.0038038  )
        11           Al  tau(  11) = (  -0.0037296   0.7539174   0.2484207  )
        12           Al  tau(  12) = (   0.2457785   0.4951990   0.2503534  )
        13           Al  tau(  13) = (   0.0003633   0.5020712   0.4952645  )
        14           Al  tau(  14) = (   0.2480277   0.7522244   0.5048591  )
        15           Al  tau(  15) = (  -0.0027435   0.7529436   0.7460195  )
        16           Al  tau(  16) = (   0.2530697   0.4956945   0.7518586  )
        17           Al  tau(  17) = (   0.5015262   0.0025334   0.0001471  )
        18           Al  tau(  18) = (   0.7470329   0.2546824  -0.0037667  )
        19           Al  tau(  19) = (   0.4987741   0.2460208   0.2507390  )
        20           Al  tau(  20) = (   0.7479276   0.0045378   0.2523777  )
        21           Al  tau(  21) = (   0.4977348  -0.0037580   0.5009664  )
        22           Al  tau(  22) = (   0.7466337   0.2543302   0.4998220  )
        23           Al  tau(  23) = (   0.4953707   0.2490682   0.7492511  )
        24           Al  tau(  24) = (   0.7516980   0.0009676   0.7487383  )
        25           Al  tau(  25) = (   0.4970082   0.4994538   0.0039879  )
        26           Al  tau(  26) = (   0.7465695   0.7526681  -0.0021972  )
        27           Al  tau(  27) = (   0.5008601   0.7496218   0.2478448  )
        28           Al  tau(  28) = (   0.7453473   0.5024679   0.2510863  )
        29           Al  tau(  29) = (   0.5012494   0.4954387   0.5012111  )
        30           Al  tau(  30) = (   0.7455586   0.7519427   0.5011011  )
        31           Al  tau(  31) = (   0.5007439   0.7521404   0.7510566  )
        32           Al  tau(  32) = (   0.7490373   0.4957192   0.7521935  )

     number of k points=   172  Methfessel-Paxton smearing, width (Ry)=  0.0100

     Number of k-points >= 100: set verbosity='high' to print them.

     Dense  grid:   103311 G-vectors     FFT dimensions: (  60,  60,  60)

     Smooth grid:    75421 G-vectors     FFT dimensions: (  54,  54,  54)

     Estimated max dynamical RAM per process >      32.14 MB

     Estimated total dynamical RAM >       4.02 GB

     Initial potential from superposition of free atoms

     starting charge   95.92671, renormalised to   96.00000
     Starting wfc are  128 randomized atomic wfcs
     Checking if some PAW data can be deallocated... 

     total cpu time spent up to now is       12.8 secs

     Self-consistent Calculation

     iteration #  1     ecut=    29.00 Ry     beta= 0.70
     Davidson diagonalization with overlap
     ethr =  1.00E-02,  avg # of iterations =  3.0

     Threshold (ethr) on eigenvalues was too large:
     Diagonalizing with lowered threshold

     Davidson diagonalization with overlap
     ethr =  1.88E-04,  avg # of iterations =  4.4

     total cpu time spent up to now is       58.9 secs

     total energy              =   -1264.07525977 Ry
     Harris-Foulkes estimate   =   -1264.12578492 Ry
     estimated scf accuracy    <       0.18428553 Ry

     iteration #  2     ecut=    29.00 Ry     beta= 0.70
     Davidson diagonalization with overlap
     ethr =  1.92E-04,  avg # of iterations =  2.1

     total cpu time spent up to now is       73.1 secs

     total energy              =   -1264.05026694 Ry
     Harris-Foulkes estimate   =   -1264.09101443 Ry
     estimated scf accuracy    <       0.06160300 Ry

     iteration #  3     ecut=    29.00 Ry     beta= 0.70
     Davidson diagonalization with overlap
     ethr =  6.42E-05,  avg # of iterations =  5.3

     total cpu time spent up to now is      103.2 secs

     total energy              =   -1264.01778489 Ry
     Harris-Foulkes estimate   =   -1264.13495520 Ry
     estimated scf accuracy    <       0.45192942 Ry

     iteration #  4     ecut=    29.00 Ry     beta= 0.70
     Davidson diagonalization with overlap
     ethr =  6.42E-05,  avg # of iterations =  4.1

     total cpu time spent up to now is      125.8 secs

     total energy              =   -1264.07755353 Ry
     Harris-Foulkes estimate   =   -1264.08208877 Ry
     estimated scf accuracy    <       0.01701254 Ry

     iteration #  5     ecut=    29.00 Ry     beta= 0.70
     Davidson diagonalization with overlap
     ethr =  1.77E-05,  avg # of iterations =  2.1

     total cpu time spent up to now is      141.3 secs

     total energy              =   -1264.07938527 Ry
     Harris-Foulkes estimate   =   -1264.07982842 Ry
     estimated scf accuracy    <       0.00221564 Ry

     iteration #  6     ecut=    29.00 Ry     beta= 0.70
     Davidson diagonalization with overlap
     ethr =  2.31E-06,  avg # of iterations =  5.3

     total cpu time spent up to now is      163.9 secs

     total energy              =   -1264.07965736 Ry
     Harris-Foulkes estimate   =   -1264.07972341 Ry
     estimated scf accuracy    <       0.00029271 Ry

     iteration #  7     ecut=    29.00 Ry     beta= 0.70
     Davidson diagonalization with overlap
     ethr =  3.05E-07,  avg # of iterations =  3.4

     total cpu time spent up to now is      182.9 secs

     total energy              =   -1264.07970956 Ry
     Harris-Foulkes estimate   =   -1264.07972568 Ry
     estimated scf accuracy    <       0.00005179 Ry

     iteration #  8     ecut=    29.00 Ry     beta= 0.70
     Davidson diagonalization with overlap
     ethr =  5.39E-08,  avg # of iterations =  3.0

     total cpu time spent up to now is      201.0 secs

     total energy              =   -1264.07971835 Ry
     Harris-Foulkes estimate   =   -1264.07972093 Ry
     estimated scf accuracy    <       0.00001074 Ry

     iteration #  9     ecut=    29.00 Ry     beta= 0.70
     Davidson diagonalization with overlap
     ethr =  1.12E-08,  avg # of iterations =  2.4

     total cpu time spent up to now is      217.7 secs

     total energy              =   -1264.07971921 Ry
     Harris-Foulkes estimate   =   -1264.07972021 Ry
     estimated scf accuracy    <       0.00000434 Ry

     iteration # 10     ecut=    29.00 Ry     beta= 0.70
     Davidson diagonalization with overlap
     ethr =  4.52E-09,  avg # of iterations =  2.3

     total cpu time spent up to now is      233.7 secs

     total energy              =   -1264.07971958 Ry
     Harris-Foulkes estimate   =   -1264.07971984 Ry
     estimated scf accuracy    <       0.00000094 Ry

     iteration # 11     ecut=    29.00 Ry     beta= 0.70
     Davidson diagonalization with overlap
     ethr =  9.82E-10,  avg # of iterations =  3.1

     total cpu time spent up to now is      251.6 secs

     total energy              =   -1264.07971973 Ry
     Harris-Foulkes estimate   =   -1264.07971978 Ry
     estimated scf accuracy    <       0.00000014 Ry

     iteration # 12     ecut=    29.00 Ry     beta= 0.70
     Davidson diagonalization with overlap
     ethr =  1.46E-10,  avg # of iterations =  2.7

     total cpu time spent up to now is      269.3 secs

     total energy              =   -1264.07971976 Ry
     Harris-Foulkes estimate   =   -1264.07971976 Ry
     estimated scf accuracy    <          9.0E-09 Ry

     iteration # 13     ecut=    29.00 Ry     beta= 0.70
     Davidson diagonalization with overlap
     ethr =  9.33E-12,  avg # of iterations =  4.2

     total cpu time spent up to now is      294.0 secs

     total energy              =   -1264.07971976 Ry
     Harris-Foulkes estimate   =   -1264.07971976 Ry
     estimated scf accuracy    <       0.00000001 Ry

     iteration # 14     ecut=    29.00 Ry     beta= 0.70
     Davidson diagonalization with overlap
     ethr =  9.33E-12,  avg # of iterations =  2.3

     total cpu time spent up to now is      310.8 secs

     total energy              =   -1264.07971976 Ry
     Harris-Foulkes estimate   =   -1264.07971976 Ry
     estimated scf accuracy    <          1.2E-09 Ry

     iteration # 15     ecut=    29.00 Ry     beta= 0.70
     Davidson diagonalization with overlap
     ethr =  1.22E-12,  avg # of iterations =  3.0

     total cpu time spent up to now is      329.0 secs

     total energy              =   -1264.07971976 Ry
     Harris-Foulkes estimate   =   -1264.07971976 Ry
     estimated scf accuracy    <          1.7E-10 Ry

     iteration # 16     ecut=    29.00 Ry     beta= 0.70
     Davidson diagonalization with overlap
     ethr =  1.73E-13,  avg # of iterations =  2.4

     total cpu time spent up to now is      346.8 secs

     End of self-consistent calculation

     Number of k-points >= 100: set verbosity='high' to print the bands.

     the Fermi energy is     7.8454 ev

!    total energy              =   -1264.07971976 Ry
     Harris-Foulkes estimate   =   -1264.07971976 Ry
     estimated scf accuracy    <          4.1E-11 Ry

     total all-electron energy =    -15540.648686 Ry

     The total energy is the sum of the following terms:

     one-electron contribution =     100.90070935 Ry
     hartree contribution      =       0.22989167 Ry
     xc contribution           =     -82.84763458 Ry
     ewald contribution        =    -172.63159810 Ry
     one-center paw contrib.   =   -1109.73102741 Ry
     smearing contrib. (-TS)   =      -0.00006069 Ry

     convergence has been achieved in  16 iterations

     Forces acting on atoms (cartesian axes, Ry/au):

     atom    1 type  1   force =    -0.00119641    0.00501588    0.00260427
     atom    2 type  1   force =    -0.00562338   -0.00947238   -0.00220201
     atom    3 type  1   force =    -0.00841950    0.00343828   -0.00959697
     atom    4 type  1   force =    -0.00310465   -0.00213405   -0.00222813
     atom    5 type  1   force =    -0.00839396   -0.00526235    0.00597086
     atom    6 type  1   force =     0.00073114    0.00614425    0.00014969
     atom    7 type  1   force =     0.00044959   -0.00442994    0.00171653
     atom    8 type  1   force =    -0.00664375   -0.00379112    0.00953602
     atom    9 type  1   force =    -0.00450932    0.00435675   -0.00411584
     atom   10 type  1   force =    -0.00347170    0.00477728   -0.00664559
     atom   11 type  1   force =     0.00158183   -0.00243864    0.00120459
     atom   12 type  1   force =     0.00602693    0.00833321    0.00600699
     atom   13 type  1   force =    -0.00209350    0.00053875    0.00602139
     atom   14 type  1   force =     0.00247039   -0.00766021   -0.00708632
     atom   15 type  1   force =     0.00335891   -0.00610196    0.00478886
     atom   16 type  1   force =    -0.00559927    0.00902976   -0.00354950
     atom   17 type  1   force =    -0.00171587   -0.00225275   -0.00189014
     atom   18 type  1   force =     0.00547075   -0.00660471    0.00717481
     atom   19 type  1   force =     0.00134862    0.00505029    0.00040617
     atom   20 type  1   force =     0.00386589   -0.00292247   -0.00394245
     atom   21 type  1   force =     0.00479762    0.00401985   -0.00201338
     atom   22 type  1   force =     0.00477155   -0.00628812    0.00069237
     atom   23 type  1   force =     0.00730607   -0.00096585    0.00123431
     atom   24 type  1   force =    -0.00036036    0.00409709   -0.00137255
     atom   25 type  1   force =     0.00430732    0.00135122   -0.00386887
     atom   26 type  1   force =     0.00536622   -0.00263186    0.00201232
     atom   27 type  1   force =    -0.00395283   -0.00093601    0.00540376
     atom   28 type  1   force =     0.00634631   -0.00282418   -0.00264772
     atom   29 type  1   force =    -0.00645547    0.00849951   -0.00124922
     atom   30 type  1   force =     0.00523342   -0.00224619   -0.00137561
     atom   31 type  1   force =    -0.00257898   -0.00552682    0.00098476
     atom   32 type  1   force =     0.00068636    0.00983747   -0.00212340

     Total force =     0.046769     Total SCF correction =     0.000009


     Computing stress (Cartesian axis) and pressure

          total   stress  (Ry/bohr**3)                   (kbar)     P=   -3.49
  -0.00002311  -0.00000173   0.00000023         -3.40     -0.25      0.03
  -0.00000173  -0.00002344  -0.00000108         -0.25     -3.45     -0.16
   0.00000023  -0.00000108  -0.00002465          0.03     -0.16     -3.63


     Writing output data file pwscf.save

     init_run     :     11.34s CPU     11.95s WALL (       1 calls)
     electrons    :    312.19s CPU    334.13s WALL (       1 calls)
     forces       :      5.58s CPU      5.84s WALL (       1 calls)
     stress       :      7.03s CPU      7.22s WALL (       1 calls)

     Called by init_run:
     wfcinit      :     10.88s CPU     11.24s WALL (       1 calls)
     potinit      :      0.10s CPU      0.14s WALL (       1 calls)

     Called by electrons:
     c_bands      :    280.32s CPU    299.55s WALL (      17 calls)
     sum_band     :     29.16s CPU     31.18s WALL (      17 calls)
     v_of_rho     :      0.14s CPU      0.24s WALL (      17 calls)
     newd         :      1.15s CPU      1.18s WALL (      17 calls)
     PAW_pot      :      1.32s CPU      1.48s WALL (      17 calls)
     mix_rho      :      0.03s CPU      0.07s WALL (      17 calls)

     Called by c_bands:
     init_us_2    :      1.33s CPU      1.37s WALL (    1591 calls)
     cegterg      :    263.84s CPU    272.21s WALL (     731 calls)

     Called by sum_band:
     sum_band:bec :      1.19s CPU      1.21s WALL (     731 calls)
     addusdens    :      0.79s CPU      0.85s WALL (      17 calls)

     Called by *egterg:
     h_psi        :    140.61s CPU    145.35s WALL (    3270 calls)
     s_psi        :     53.13s CPU     53.37s WALL (    3270 calls)
     g_psi        :      0.10s CPU      0.10s WALL (    2496 calls)
     cdiaghg      :     49.74s CPU     50.44s WALL (    3184 calls)

     Called by h_psi:
     h_psi:pot    :    140.35s CPU    145.08s WALL (    3270 calls)
     h_psi:calbec :     55.43s CPU     57.86s WALL (    3270 calls)
     vloc_psi     :     32.62s CPU     34.68s WALL (    3270 calls)
     add_vuspsi   :     52.28s CPU     52.52s WALL (    3270 calls)

     General routines
     calbec       :     80.92s CPU     84.31s WALL (    4216 calls)
     fft          :      0.16s CPU      0.43s WALL (     297 calls)
     ffts         :      0.04s CPU      0.09s WALL (      34 calls)
     fftw         :     36.57s CPU     38.86s WALL (  281098 calls)
     interpolate  :      0.06s CPU      0.16s WALL (      34 calls)

     Parallel routines
     fft_scatt_xy :      1.74s CPU      1.83s WALL (  281429 calls)
     fft_scatt_yz :     10.93s CPU     12.09s WALL (  281429 calls)

     PWSCF        :  5m38.97s CPU     6m10.60s WALL


   This run was terminated on:  11:22: 3  28Mar2019            

=------------------------------------------------------------------------------=
   JOB DONE.
=------------------------------------------------------------------------------=
