
     Program PWSCF v.6.2 starts on 28Mar2019 at 13: 8:57 

     This program is part of the open-source Quantum ESPRESSO suite
     for quantum simulation of materials; please cite
         "P. Giannozzi et al., J. Phys.:Condens. Matter 21 395502 (2009);
         "P. Giannozzi et al., J. Phys.:Condens. Matter 29 465901 (2017);
          URL http://www.quantum-espresso.org", 
     in publications or presentations arising from this work. More details at
     http://www.quantum-espresso.org/quote

     Parallel version (MPI), running on   128 processors

     MPI processes distributed on     4 nodes
     K-points division:     npool     =       4
     R & G space division:  proc/nbgrp/npool/nimage =      32
     Waiting for input...
     Reading input from standard input

     Current dimensions of program PWSCF are:
     Max number of different atomic species (ntypx) = 10
     Max number of k-points (npk) =  40000
     Max angular momentum in pseudopotentials (lmaxx) =  3
               file Al.pbe-n-kjpaw_psl.1.0.0.UPF: wavefunction(s)  3S 3P renormalized

     Subspace diagonalization in iterative solution of the eigenvalue problem:
     a serial algorithm will be used


     Parallelization info
     --------------------
     sticks:   dense  smooth     PW     G-vecs:    dense   smooth      PW
     Min          82      67     18                 3227     2355     344
     Max          84      68     19                 3230     2358     349
     Sum        2661    2161    593               103311    75421   11067



     bravais-lattice index     =            0
     lattice parameter (alat)  =      15.2917  a.u.
     unit-cell volume          =    3575.7260 (a.u.)^3
     number of atoms/cell      =           32
     number of atomic types    =            1
     number of electrons       =        96.00
     number of Kohn-Sham states=           58
     kinetic-energy cutoff     =      29.0000  Ry
     charge density cutoff     =     143.0000  Ry
     convergence threshold     =      1.0E-10
     mixing beta               =       0.7000
     number of iterations used =            8  plain     mixing
     Exchange-correlation      = SLA PW PBX PBC ( 1  4  3  4 0 0)

     celldm(1)=  15.291664  celldm(2)=   0.000000  celldm(3)=   0.000000
     celldm(4)=   0.000000  celldm(5)=   0.000000  celldm(6)=   0.000000

     crystal axes: (cart. coord. in units of alat)
               a(1) = (   1.000000   0.000000   0.000000 )  
               a(2) = (   0.000000   1.000000   0.000000 )  
               a(3) = (   0.000000   0.000000   1.000000 )  

     reciprocal axes: (cart. coord. in units 2 pi/alat)
               b(1) = (  1.000000  0.000000  0.000000 )  
               b(2) = (  0.000000  1.000000  0.000000 )  
               b(3) = (  0.000000  0.000000  1.000000 )  


     PseudoPot. # 1 for Al read from file:
     /n/home03/jonpvandermause/qe-6.2.1/pseudo/Al.pbe-n-kjpaw_psl.1.0.0.UPF
     MD5 check sum: 502b6b27b9c6270cab5dd1084b96fa6d
     Pseudo is Projector augmented-wave + core cor, Zval =  3.0
     Generated using "atomic" code by A. Dal Corso v.6.3
     Shape of augmentation charge: PSQ
     Using radial grid of 1135 points,  6 beta functions with: 
                l(1) =   0
                l(2) =   0
                l(3) =   1
                l(4) =   1
                l(5) =   2
                l(6) =   2
     Q(r) pseudized with 0 coefficients 


     atomic species   valence    mass     pseudopotential
        Al             3.00    27.00000     Al( 1.00)

     No symmetry found



   Cartesian axes

     site n.     atom                  positions (alat units)
         1           Al  tau(   1) = (   0.0165695  -0.0183082  -0.0156735  )
         2           Al  tau(   2) = (   0.2415299   0.2503757   0.0026347  )
         3           Al  tau(   3) = (  -0.0221157   0.2456698   0.2354276  )
         4           Al  tau(   4) = (   0.2543080  -0.0148035   0.2279078  )
         5           Al  tau(   5) = (  -0.0009874   0.0024691   0.5100161  )
         6           Al  tau(   6) = (   0.2418401   0.2551396   0.5136468  )
         7           Al  tau(   7) = (   0.0068092   0.2272701   0.7579931  )
         8           Al  tau(   8) = (   0.2486777   0.0021367   0.7467573  )
         9           Al  tau(   9) = (   0.0152620   0.5156809  -0.0104869  )
        10           Al  tau(  10) = (   0.2495440   0.7336666  -0.0061456  )
        11           Al  tau(  11) = (   0.0144723   0.7327150   0.2626569  )
        12           Al  tau(  12) = (   0.2358354   0.5070564   0.2652274  )
        13           Al  tau(  13) = (  -0.0105524   0.5072034   0.5093599  )
        14           Al  tau(  14) = (   0.2729165   0.7298987   0.5019810  )
        15           Al  tau(  15) = (   0.0100272   0.7446367   0.7417870  )
        16           Al  tau(  16) = (   0.2646083   0.4828275   0.7458391  )
        17           Al  tau(  17) = (   0.5088396   0.0227966   0.0213779  )
        18           Al  tau(  18) = (   0.7589718   0.2498604  -0.0043117  )
        19           Al  tau(  19) = (   0.4906784   0.2486925   0.2506970  )
        20           Al  tau(  20) = (   0.7469402   0.0072800   0.2636048  )
        21           Al  tau(  21) = (   0.4754090   0.0213668   0.4918178  )
        22           Al  tau(  22) = (   0.7371169   0.2447158   0.4860257  )
        23           Al  tau(  23) = (   0.5169488   0.2265620   0.7331846  )
        24           Al  tau(  24) = (   0.7610208   0.0090620   0.7370020  )
        25           Al  tau(  25) = (   0.4911097   0.4915472  -0.0238099  )
        26           Al  tau(  26) = (   0.7491572   0.7624629  -0.0083922  )
        27           Al  tau(  27) = (   0.5118253   0.7666906   0.2492585  )
        28           Al  tau(  28) = (   0.7510640   0.5204795   0.2655376  )
        29           Al  tau(  29) = (   0.4859553   0.4996972   0.4771725  )
        30           Al  tau(  30) = (   0.7591967   0.7678559   0.4832847  )
        31           Al  tau(  31) = (   0.4986097   0.7685677   0.7394674  )
        32           Al  tau(  32) = (   0.7430413   0.5025235   0.7591535  )

     number of k points=   172  Methfessel-Paxton smearing, width (Ry)=  0.0100

     Number of k-points >= 100: set verbosity='high' to print them.

     Dense  grid:   103311 G-vectors     FFT dimensions: (  60,  60,  60)

     Smooth grid:    75421 G-vectors     FFT dimensions: (  54,  54,  54)

     Estimated max dynamical RAM per process >      32.14 MB

     Estimated total dynamical RAM >       4.02 GB

     Initial potential from superposition of free atoms

     starting charge   95.92671, renormalised to   96.00000
     Starting wfc are  128 randomized atomic wfcs
     Checking if some PAW data can be deallocated... 

     total cpu time spent up to now is       12.8 secs

     Self-consistent Calculation

     iteration #  1     ecut=    29.00 Ry     beta= 0.70
     Davidson diagonalization with overlap
     ethr =  1.00E-02,  avg # of iterations =  3.0

     Threshold (ethr) on eigenvalues was too large:
     Diagonalizing with lowered threshold

     Davidson diagonalization with overlap
     ethr =  2.82E-04,  avg # of iterations =  3.7

     total cpu time spent up to now is       53.7 secs

     total energy              =   -1263.86338358 Ry
     Harris-Foulkes estimate   =   -1264.00280876 Ry
     estimated scf accuracy    <       0.30238684 Ry

     iteration #  2     ecut=    29.00 Ry     beta= 0.70
     Davidson diagonalization with overlap
     ethr =  3.15E-04,  avg # of iterations =  4.0

     total cpu time spent up to now is       77.1 secs

     total energy              =   -1263.75336390 Ry
     Harris-Foulkes estimate   =   -1264.03323932 Ry
     estimated scf accuracy    <       0.69467966 Ry

     iteration #  3     ecut=    29.00 Ry     beta= 0.70
     Davidson diagonalization with overlap
     ethr =  3.15E-04,  avg # of iterations =  3.7

     total cpu time spent up to now is       99.4 secs

     total energy              =   -1263.86264487 Ry
     Harris-Foulkes estimate   =   -1263.97941711 Ry
     estimated scf accuracy    <       0.41193339 Ry

     iteration #  4     ecut=    29.00 Ry     beta= 0.70
     Davidson diagonalization with overlap
     ethr =  3.15E-04,  avg # of iterations =  2.2

     total cpu time spent up to now is      116.1 secs

     total energy              =   -1263.91387261 Ry
     Harris-Foulkes estimate   =   -1263.93864163 Ry
     estimated scf accuracy    <       0.06504110 Ry

     iteration #  5     ecut=    29.00 Ry     beta= 0.70
     Davidson diagonalization with overlap
     ethr =  6.78E-05,  avg # of iterations =  2.7

     total cpu time spent up to now is      133.9 secs

     total energy              =   -1263.92599612 Ry
     Harris-Foulkes estimate   =   -1263.92734097 Ry
     estimated scf accuracy    <       0.00262983 Ry

     iteration #  6     ecut=    29.00 Ry     beta= 0.70
     Davidson diagonalization with overlap
     ethr =  2.74E-06,  avg # of iterations =  7.1

     total cpu time spent up to now is      170.4 secs

     total energy              =   -1263.92675909 Ry
     Harris-Foulkes estimate   =   -1263.92784866 Ry
     estimated scf accuracy    <       0.00409128 Ry

     iteration #  7     ecut=    29.00 Ry     beta= 0.70
     Davidson diagonalization with overlap
     ethr =  2.74E-06,  avg # of iterations =  2.2

     total cpu time spent up to now is      187.5 secs

     total energy              =   -1263.92727736 Ry
     Harris-Foulkes estimate   =   -1263.92735500 Ry
     estimated scf accuracy    <       0.00027932 Ry

     iteration #  8     ecut=    29.00 Ry     beta= 0.70
     Davidson diagonalization with overlap
     ethr =  2.91E-07,  avg # of iterations =  2.9

     total cpu time spent up to now is      203.7 secs

     total energy              =   -1263.92730874 Ry
     Harris-Foulkes estimate   =   -1263.92731912 Ry
     estimated scf accuracy    <       0.00004283 Ry

     iteration #  9     ecut=    29.00 Ry     beta= 0.70
     Davidson diagonalization with overlap
     ethr =  4.46E-08,  avg # of iterations =  3.0

     total cpu time spent up to now is      222.1 secs

     total energy              =   -1263.92731467 Ry
     Harris-Foulkes estimate   =   -1263.92731836 Ry
     estimated scf accuracy    <       0.00001141 Ry

     iteration # 10     ecut=    29.00 Ry     beta= 0.70
     Davidson diagonalization with overlap
     ethr =  1.19E-08,  avg # of iterations =  3.0

     total cpu time spent up to now is      240.1 secs

     total energy              =   -1263.92731690 Ry
     Harris-Foulkes estimate   =   -1263.92731758 Ry
     estimated scf accuracy    <       0.00000225 Ry

     iteration # 11     ecut=    29.00 Ry     beta= 0.70
     Davidson diagonalization with overlap
     ethr =  2.34E-09,  avg # of iterations =  2.7

     total cpu time spent up to now is      257.0 secs

     total energy              =   -1263.92731724 Ry
     Harris-Foulkes estimate   =   -1263.92731734 Ry
     estimated scf accuracy    <       0.00000026 Ry

     iteration # 12     ecut=    29.00 Ry     beta= 0.70
     Davidson diagonalization with overlap
     ethr =  2.66E-10,  avg # of iterations =  3.6

     total cpu time spent up to now is      277.9 secs

     total energy              =   -1263.92731728 Ry
     Harris-Foulkes estimate   =   -1263.92731735 Ry
     estimated scf accuracy    <       0.00000024 Ry

     iteration # 13     ecut=    29.00 Ry     beta= 0.70
     Davidson diagonalization with overlap
     ethr =  2.53E-10,  avg # of iterations =  2.0

     total cpu time spent up to now is      293.2 secs

     total energy              =   -1263.92731731 Ry
     Harris-Foulkes estimate   =   -1263.92731732 Ry
     estimated scf accuracy    <       0.00000002 Ry

     iteration # 14     ecut=    29.00 Ry     beta= 0.70
     Davidson diagonalization with overlap
     ethr =  2.35E-11,  avg # of iterations =  3.1

     total cpu time spent up to now is      312.4 secs

     total energy              =   -1263.92731732 Ry
     Harris-Foulkes estimate   =   -1263.92731732 Ry
     estimated scf accuracy    <          5.2E-09 Ry

     iteration # 15     ecut=    29.00 Ry     beta= 0.70
     Davidson diagonalization with overlap
     ethr =  5.41E-12,  avg # of iterations =  2.5

     total cpu time spent up to now is      330.2 secs

     total energy              =   -1263.92731732 Ry
     Harris-Foulkes estimate   =   -1263.92731732 Ry
     estimated scf accuracy    <          3.7E-09 Ry

     iteration # 16     ecut=    29.00 Ry     beta= 0.70
     Davidson diagonalization with overlap
     ethr =  3.86E-12,  avg # of iterations =  2.1

     total cpu time spent up to now is      345.7 secs

     total energy              =   -1263.92731732 Ry
     Harris-Foulkes estimate   =   -1263.92731732 Ry
     estimated scf accuracy    <          7.7E-10 Ry

     iteration # 17     ecut=    29.00 Ry     beta= 0.70
     Davidson diagonalization with overlap
     ethr =  8.06E-13,  avg # of iterations =  3.2

     total cpu time spent up to now is      364.4 secs

     total energy              =   -1263.92731732 Ry
     Harris-Foulkes estimate   =   -1263.92731732 Ry
     estimated scf accuracy    <          6.6E-10 Ry

     iteration # 18     ecut=    29.00 Ry     beta= 0.70
     Davidson diagonalization with overlap
     ethr =  6.88E-13,  avg # of iterations =  2.0

     total cpu time spent up to now is      379.7 secs

     End of self-consistent calculation

     Number of k-points >= 100: set verbosity='high' to print the bands.

     the Fermi energy is     7.8224 ev

!    total energy              =   -1263.92731732 Ry
     Harris-Foulkes estimate   =   -1263.92731732 Ry
     estimated scf accuracy    <          4.2E-11 Ry

     total all-electron energy =    -15540.496283 Ry

     The total energy is the sum of the following terms:

     one-electron contribution =      99.79890178 Ry
     hartree contribution      =       0.79033159 Ry
     xc contribution           =     -83.01137999 Ry
     ewald contribution        =    -171.68038228 Ry
     one-center paw contrib.   =   -1109.82507800 Ry
     smearing contrib. (-TS)   =       0.00028959 Ry

     convergence has been achieved in  18 iterations

     Forces acting on atoms (cartesian axes, Ry/au):

     atom    1 type  1   force =    -0.02309880    0.00401774    0.02694991
     atom    2 type  1   force =     0.00791103    0.00068762    0.00524141
     atom    3 type  1   force =     0.03272276    0.00822419    0.01817749
     atom    4 type  1   force =    -0.02188119    0.01010162    0.02629319
     atom    5 type  1   force =     0.01980066   -0.00214870   -0.03230214
     atom    6 type  1   force =    -0.01233950   -0.00468029   -0.02999134
     atom    7 type  1   force =    -0.01045745    0.04504040   -0.00664761
     atom    8 type  1   force =     0.01836999   -0.01497585    0.00568682
     atom    9 type  1   force =    -0.03169236   -0.02902624    0.00893265
     atom   10 type  1   force =     0.02857293    0.01947989   -0.00040030
     atom   11 type  1   force =    -0.01652319    0.04198273   -0.01602322
     atom   12 type  1   force =     0.01518451   -0.03778045   -0.02961984
     atom   13 type  1   force =     0.00077352   -0.02763141    0.00603084
     atom   14 type  1   force =    -0.03451270    0.04387144    0.00257906
     atom   15 type  1   force =    -0.00504027    0.00142477   -0.00374419
     atom   16 type  1   force =    -0.01471872    0.01122465   -0.00285447
     atom   17 type  1   force =    -0.00000174   -0.02345286   -0.04403865
     atom   18 type  1   force =    -0.01076268    0.00962547   -0.00221144
     atom   19 type  1   force =    -0.00399218    0.02903950   -0.00753636
     atom   20 type  1   force =     0.01153193   -0.00610342   -0.02778552
     atom   21 type  1   force =     0.01148496   -0.04025473   -0.00788935
     atom   22 type  1   force =     0.01900692    0.02927234    0.01506893
     atom   23 type  1   force =    -0.01893338    0.03493478    0.03059667
     atom   24 type  1   force =    -0.01381528   -0.02545526    0.01503928
     atom   25 type  1   force =     0.01700688    0.00353934    0.03432421
     atom   26 type  1   force =     0.00113091   -0.00621832    0.00601210
     atom   27 type  1   force =    -0.01076018   -0.01935781   -0.01158928
     atom   28 type  1   force =    -0.00597925   -0.02410180   -0.03336218
     atom   29 type  1   force =     0.03905053   -0.01143835    0.02482486
     atom   30 type  1   force =    -0.01519450   -0.01165616    0.03656795
     atom   31 type  1   force =     0.01847524   -0.00849580    0.01271900
     atom   32 type  1   force =     0.00868060    0.00031101   -0.01904850

     Total force =     0.204852     Total SCF correction =     0.000008


     Computing stress (Cartesian axis) and pressure

          total   stress  (Ry/bohr**3)                   (kbar)     P=   18.17
   0.00012826  -0.00001086   0.00000805         18.87     -1.60      1.18
  -0.00001086   0.00011986   0.00003259         -1.60     17.63      4.79
   0.00000805   0.00003259   0.00012244          1.18      4.79     18.01


     Writing output data file pwscf.save

     init_run     :     11.43s CPU     11.92s WALL (       1 calls)
     electrons    :    346.25s CPU    367.03s WALL (       1 calls)
     forces       :      5.59s CPU      5.84s WALL (       1 calls)
     stress       :      7.04s CPU      7.20s WALL (       1 calls)

     Called by init_run:
     wfcinit      :     11.08s CPU     11.41s WALL (       1 calls)
     potinit      :      0.10s CPU      0.15s WALL (       1 calls)

     Called by electrons:
     c_bands      :    310.34s CPU    328.39s WALL (      19 calls)
     sum_band     :     32.92s CPU     34.91s WALL (      19 calls)
     v_of_rho     :      0.14s CPU      0.28s WALL (      19 calls)
     newd         :      1.27s CPU      1.31s WALL (      19 calls)
     PAW_pot      :      1.49s CPU      1.67s WALL (      19 calls)
     mix_rho      :      0.03s CPU      0.07s WALL (      19 calls)

     Called by c_bands:
     init_us_2    :      1.44s CPU      1.49s WALL (    1763 calls)
     cegterg      :    294.85s CPU    303.40s WALL (     817 calls)

     Called by sum_band:
     sum_band:bec :      1.32s CPU      1.34s WALL (     817 calls)
     addusdens    :      0.88s CPU      0.92s WALL (      19 calls)

     Called by *egterg:
     h_psi        :    158.55s CPU    163.52s WALL (    3505 calls)
     s_psi        :     60.07s CPU     60.46s WALL (    3505 calls)
     g_psi        :      0.11s CPU      0.11s WALL (    2645 calls)
     cdiaghg      :     53.57s CPU     54.16s WALL (    3419 calls)

     Called by h_psi:
     h_psi:pot    :    158.26s CPU    163.23s WALL (    3505 calls)
     h_psi:calbec :     62.45s CPU     64.95s WALL (    3505 calls)
     vloc_psi     :     36.47s CPU     38.57s WALL (    3505 calls)
     add_vuspsi   :     59.31s CPU     59.67s WALL (    3505 calls)

     General routines
     calbec       :     90.70s CPU     94.24s WALL (    4537 calls)
     fft          :      0.17s CPU      0.43s WALL (     329 calls)
     ffts         :      0.02s CPU      0.06s WALL (      38 calls)
     fftw         :     40.90s CPU     43.24s WALL (  312642 calls)
     interpolate  :      0.04s CPU      0.12s WALL (      38 calls)

     Parallel routines
     fft_scatt_xy :      1.94s CPU      2.05s WALL (  313009 calls)
     fft_scatt_yz :     12.22s CPU     13.39s WALL (  313009 calls)

     PWSCF        :  6m13.15s CPU     6m43.63s WALL


   This run was terminated on:  13:15:41  28Mar2019            

=------------------------------------------------------------------------------=
   JOB DONE.
=------------------------------------------------------------------------------=
