
     Program PWSCF v.6.2 starts on 28Mar2019 at 13:15:42 

     This program is part of the open-source Quantum ESPRESSO suite
     for quantum simulation of materials; please cite
         "P. Giannozzi et al., J. Phys.:Condens. Matter 21 395502 (2009);
         "P. Giannozzi et al., J. Phys.:Condens. Matter 29 465901 (2017);
          URL http://www.quantum-espresso.org", 
     in publications or presentations arising from this work. More details at
     http://www.quantum-espresso.org/quote

     Parallel version (MPI), running on   128 processors

     MPI processes distributed on     4 nodes
     K-points division:     npool     =       4
     R & G space division:  proc/nbgrp/npool/nimage =      32
     Waiting for input...
     Reading input from standard input

     Current dimensions of program PWSCF are:
     Max number of different atomic species (ntypx) = 10
     Max number of k-points (npk) =  40000
     Max angular momentum in pseudopotentials (lmaxx) =  3
               file Al.pbe-n-kjpaw_psl.1.0.0.UPF: wavefunction(s)  3S 3P renormalized

     Subspace diagonalization in iterative solution of the eigenvalue problem:
     a serial algorithm will be used


     Parallelization info
     --------------------
     sticks:   dense  smooth     PW     G-vecs:    dense   smooth      PW
     Min          82      67     18                 3227     2355     344
     Max          84      68     19                 3230     2358     349
     Sum        2661    2161    593               103311    75421   11067



     bravais-lattice index     =            0
     lattice parameter (alat)  =      15.2917  a.u.
     unit-cell volume          =    3575.7260 (a.u.)^3
     number of atoms/cell      =           32
     number of atomic types    =            1
     number of electrons       =        96.00
     number of Kohn-Sham states=           58
     kinetic-energy cutoff     =      29.0000  Ry
     charge density cutoff     =     143.0000  Ry
     convergence threshold     =      1.0E-10
     mixing beta               =       0.7000
     number of iterations used =            8  plain     mixing
     Exchange-correlation      = SLA PW PBX PBC ( 1  4  3  4 0 0)

     celldm(1)=  15.291664  celldm(2)=   0.000000  celldm(3)=   0.000000
     celldm(4)=   0.000000  celldm(5)=   0.000000  celldm(6)=   0.000000

     crystal axes: (cart. coord. in units of alat)
               a(1) = (   1.000000   0.000000   0.000000 )  
               a(2) = (   0.000000   1.000000   0.000000 )  
               a(3) = (   0.000000   0.000000   1.000000 )  

     reciprocal axes: (cart. coord. in units 2 pi/alat)
               b(1) = (  1.000000  0.000000  0.000000 )  
               b(2) = (  0.000000  1.000000  0.000000 )  
               b(3) = (  0.000000  0.000000  1.000000 )  


     PseudoPot. # 1 for Al read from file:
     /n/home03/jonpvandermause/qe-6.2.1/pseudo/Al.pbe-n-kjpaw_psl.1.0.0.UPF
     MD5 check sum: 502b6b27b9c6270cab5dd1084b96fa6d
     Pseudo is Projector augmented-wave + core cor, Zval =  3.0
     Generated using "atomic" code by A. Dal Corso v.6.3
     Shape of augmentation charge: PSQ
     Using radial grid of 1135 points,  6 beta functions with: 
                l(1) =   0
                l(2) =   0
                l(3) =   1
                l(4) =   1
                l(5) =   2
                l(6) =   2
     Q(r) pseudized with 0 coefficients 


     atomic species   valence    mass     pseudopotential
        Al             3.00    27.00000     Al( 1.00)

     No symmetry found



   Cartesian axes

     site n.     atom                  positions (alat units)
         1           Al  tau(   1) = (  -0.0150952   0.0247368  -0.0236666  )
         2           Al  tau(   2) = (   0.2250260   0.2731105  -0.0215423  )
         3           Al  tau(   3) = (  -0.0044204   0.2596589   0.2678411  )
         4           Al  tau(   4) = (   0.2592103  -0.0094847   0.2335467  )
         5           Al  tau(   5) = (  -0.0172541   0.0017004   0.5213977  )
         6           Al  tau(   6) = (   0.2617499   0.2652793   0.5011134  )
         7           Al  tau(   7) = (  -0.0200062   0.2307489   0.7332773  )
         8           Al  tau(   8) = (   0.2406142   0.0039125   0.7436184  )
         9           Al  tau(   9) = (  -0.0209602   0.4926792  -0.0231970  )
        10           Al  tau(  10) = (   0.2387877   0.7398356   0.0090855  )
        11           Al  tau(  11) = (   0.0069674   0.7554832   0.2329980  )
        12           Al  tau(  12) = (   0.2498369   0.5046169   0.2451915  )
        13           Al  tau(  13) = (   0.0106995   0.5170576   0.4827916  )
        14           Al  tau(  14) = (   0.2506303   0.7599221   0.4852101  )
        15           Al  tau(  15) = (  -0.0167709   0.7361616   0.7374889  )
        16           Al  tau(  16) = (   0.2663322   0.5199444   0.7540707  )
        17           Al  tau(  17) = (   0.4895971  -0.0078510   0.0071738  )
        18           Al  tau(  18) = (   0.7559268   0.2689076  -0.0116053  )
        19           Al  tau(  19) = (   0.4830030   0.2482736   0.2660875  )
        20           Al  tau(  20) = (   0.7311888   0.0070082   0.2551396  )
        21           Al  tau(  21) = (   0.5078942   0.0160455   0.5103300  )
        22           Al  tau(  22) = (   0.7558811   0.2303065   0.4825334  )
        23           Al  tau(  23) = (   0.4805326   0.2468018   0.7670910  )
        24           Al  tau(  24) = (   0.7538668   0.0092215   0.7349419  )
        25           Al  tau(  25) = (   0.4907650   0.4784157  -0.0025890  )
        26           Al  tau(  26) = (   0.7605339   0.7250816   0.0063705  )
        27           Al  tau(  27) = (   0.5057069   0.7672145   0.2339718  )
        28           Al  tau(  28) = (   0.7568487   0.5007304   0.2497541  )
        29           Al  tau(  29) = (   0.5156574   0.4854622   0.4837049  )
        30           Al  tau(  30) = (   0.7581661   0.7627200   0.4942388  )
        31           Al  tau(  31) = (   0.5053757   0.7629449   0.7403942  )
        32           Al  tau(  32) = (   0.7502484   0.5090447   0.7508737  )

     number of k points=   172  Methfessel-Paxton smearing, width (Ry)=  0.0100

     Number of k-points >= 100: set verbosity='high' to print them.

     Dense  grid:   103311 G-vectors     FFT dimensions: (  60,  60,  60)

     Smooth grid:    75421 G-vectors     FFT dimensions: (  54,  54,  54)

     Estimated max dynamical RAM per process >      32.14 MB

     Estimated total dynamical RAM >       4.02 GB

     Initial potential from superposition of free atoms

     starting charge   95.92671, renormalised to   96.00000
     Starting wfc are  128 randomized atomic wfcs
     Checking if some PAW data can be deallocated... 

     total cpu time spent up to now is       12.8 secs

     Self-consistent Calculation

     iteration #  1     ecut=    29.00 Ry     beta= 0.70
     Davidson diagonalization with overlap
     ethr =  1.00E-02,  avg # of iterations =  3.0

     Threshold (ethr) on eigenvalues was too large:
     Diagonalizing with lowered threshold

     Davidson diagonalization with overlap
     ethr =  3.25E-04,  avg # of iterations =  3.4

     total cpu time spent up to now is       52.2 secs

     total energy              =   -1263.79601634 Ry
     Harris-Foulkes estimate   =   -1263.97613225 Ry
     estimated scf accuracy    <       0.35566068 Ry

     iteration #  2     ecut=    29.00 Ry     beta= 0.70
     Davidson diagonalization with overlap
     ethr =  3.70E-04,  avg # of iterations =  4.1

     total cpu time spent up to now is       76.1 secs

     total energy              =   -1263.68709261 Ry
     Harris-Foulkes estimate   =   -1264.01295084 Ry
     estimated scf accuracy    <       0.78998248 Ry

     iteration #  3     ecut=    29.00 Ry     beta= 0.70
     Davidson diagonalization with overlap
     ethr =  3.70E-04,  avg # of iterations =  3.6

     total cpu time spent up to now is       98.2 secs

     total energy              =   -1263.80594305 Ry
     Harris-Foulkes estimate   =   -1263.94669436 Ry
     estimated scf accuracy    <       0.49435164 Ry

     iteration #  4     ecut=    29.00 Ry     beta= 0.70
     Davidson diagonalization with overlap
     ethr =  3.70E-04,  avg # of iterations =  2.2

     total cpu time spent up to now is      114.9 secs

     total energy              =   -1263.87023866 Ry
     Harris-Foulkes estimate   =   -1263.89684024 Ry
     estimated scf accuracy    <       0.07245858 Ry

     iteration #  5     ecut=    29.00 Ry     beta= 0.70
     Davidson diagonalization with overlap
     ethr =  7.55E-05,  avg # of iterations =  2.8

     total cpu time spent up to now is      132.6 secs

     total energy              =   -1263.88306697 Ry
     Harris-Foulkes estimate   =   -1263.88523639 Ry
     estimated scf accuracy    <       0.00424992 Ry

     iteration #  6     ecut=    29.00 Ry     beta= 0.70
     Davidson diagonalization with overlap
     ethr =  4.43E-06,  avg # of iterations =  6.6

     total cpu time spent up to now is      165.6 secs

     total energy              =   -1263.88397199 Ry
     Harris-Foulkes estimate   =   -1263.88580797 Ry
     estimated scf accuracy    <       0.00697749 Ry

     iteration #  7     ecut=    29.00 Ry     beta= 0.70
     Davidson diagonalization with overlap
     ethr =  4.43E-06,  avg # of iterations =  2.1

     total cpu time spent up to now is      182.1 secs

     total energy              =   -1263.88484401 Ry
     Harris-Foulkes estimate   =   -1263.88493671 Ry
     estimated scf accuracy    <       0.00030875 Ry

     iteration #  8     ecut=    29.00 Ry     beta= 0.70
     Davidson diagonalization with overlap
     ethr =  3.22E-07,  avg # of iterations =  3.1

     total cpu time spent up to now is      200.0 secs

     total energy              =   -1263.88489471 Ry
     Harris-Foulkes estimate   =   -1263.88490765 Ry
     estimated scf accuracy    <       0.00005038 Ry

     iteration #  9     ecut=    29.00 Ry     beta= 0.70
     Davidson diagonalization with overlap
     ethr =  5.25E-08,  avg # of iterations =  2.3

     total cpu time spent up to now is      218.4 secs

     total energy              =   -1263.88489948 Ry
     Harris-Foulkes estimate   =   -1263.88490424 Ry
     estimated scf accuracy    <       0.00001648 Ry

     iteration # 10     ecut=    29.00 Ry     beta= 0.70
     Davidson diagonalization with overlap
     ethr =  1.72E-08,  avg # of iterations =  2.8

     total cpu time spent up to now is      237.0 secs

     total energy              =   -1263.88490185 Ry
     Harris-Foulkes estimate   =   -1263.88490277 Ry
     estimated scf accuracy    <       0.00000291 Ry

     iteration # 11     ecut=    29.00 Ry     beta= 0.70
     Davidson diagonalization with overlap
     ethr =  3.03E-09,  avg # of iterations =  3.0

     total cpu time spent up to now is      255.1 secs

     total energy              =   -1263.88490245 Ry
     Harris-Foulkes estimate   =   -1263.88490257 Ry
     estimated scf accuracy    <       0.00000031 Ry

     iteration # 12     ecut=    29.00 Ry     beta= 0.70
     Davidson diagonalization with overlap
     ethr =  3.23E-10,  avg # of iterations =  3.2

     total cpu time spent up to now is      274.8 secs

     total energy              =   -1263.88490249 Ry
     Harris-Foulkes estimate   =   -1263.88490255 Ry
     estimated scf accuracy    <       0.00000018 Ry

     iteration # 13     ecut=    29.00 Ry     beta= 0.70
     Davidson diagonalization with overlap
     ethr =  1.92E-10,  avg # of iterations =  2.1

     total cpu time spent up to now is      290.7 secs

     total energy              =   -1263.88490252 Ry
     Harris-Foulkes estimate   =   -1263.88490253 Ry
     estimated scf accuracy    <       0.00000004 Ry

     iteration # 14     ecut=    29.00 Ry     beta= 0.70
     Davidson diagonalization with overlap
     ethr =  4.03E-11,  avg # of iterations =  2.8

     total cpu time spent up to now is      307.6 secs

     total energy              =   -1263.88490253 Ry
     Harris-Foulkes estimate   =   -1263.88490253 Ry
     estimated scf accuracy    <          3.4E-09 Ry

     iteration # 15     ecut=    29.00 Ry     beta= 0.70
     Davidson diagonalization with overlap
     ethr =  3.49E-12,  avg # of iterations =  3.8

     total cpu time spent up to now is      329.4 secs

     total energy              =   -1263.88490253 Ry
     Harris-Foulkes estimate   =   -1263.88490253 Ry
     estimated scf accuracy    <          5.3E-09 Ry

     iteration # 16     ecut=    29.00 Ry     beta= 0.70
     Davidson diagonalization with overlap
     ethr =  3.49E-12,  avg # of iterations =  2.2

     total cpu time spent up to now is      345.9 secs

     total energy              =   -1263.88490253 Ry
     Harris-Foulkes estimate   =   -1263.88490253 Ry
     estimated scf accuracy    <          1.4E-09 Ry

     iteration # 17     ecut=    29.00 Ry     beta= 0.70
     Davidson diagonalization with overlap
     ethr =  1.50E-12,  avg # of iterations =  2.0

     total cpu time spent up to now is      360.6 secs

     total energy              =   -1263.88490253 Ry
     Harris-Foulkes estimate   =   -1263.88490253 Ry
     estimated scf accuracy    <          1.6E-10 Ry

     iteration # 18     ecut=    29.00 Ry     beta= 0.70
     Davidson diagonalization with overlap
     ethr =  1.70E-13,  avg # of iterations =  3.3

     total cpu time spent up to now is      380.6 secs

     End of self-consistent calculation

     Number of k-points >= 100: set verbosity='high' to print the bands.

     the Fermi energy is     7.8151 ev

!    total energy              =   -1263.88490253 Ry
     Harris-Foulkes estimate   =   -1263.88490253 Ry
     estimated scf accuracy    <          8.7E-11 Ry

     total all-electron energy =    -15540.453869 Ry

     The total energy is the sum of the following terms:

     one-electron contribution =      99.41392060 Ry
     hartree contribution      =       0.98020578 Ry
     xc contribution           =     -83.05991040 Ry
     ewald contribution        =    -171.37326862 Ry
     one-center paw contrib.   =   -1109.84622553 Ry
     smearing contrib. (-TS)   =       0.00037563 Ry

     convergence has been achieved in  18 iterations

     Forces acting on atoms (cartesian axes, Ry/au):

     atom    1 type  1   force =     0.00881136   -0.03920631    0.04330705
     atom    2 type  1   force =     0.00153130   -0.02795370    0.02556393
     atom    3 type  1   force =     0.02150151   -0.02088913   -0.03053665
     atom    4 type  1   force =    -0.03483093    0.02974857    0.02031965
     atom    5 type  1   force =     0.05424190   -0.02438469   -0.06381146
     atom    6 type  1   force =    -0.03068410   -0.01018174    0.01296309
     atom    7 type  1   force =     0.02996925    0.07289560   -0.00071473
     atom    8 type  1   force =     0.00542440   -0.01219165    0.00611757
     atom    9 type  1   force =     0.05068378    0.00746911    0.01965948
     atom   10 type  1   force =     0.01050330    0.01204010   -0.03519507
     atom   11 type  1   force =    -0.01792371    0.01252624    0.01481724
     atom   12 type  1   force =     0.00375832   -0.00536174   -0.00143124
     atom   13 type  1   force =    -0.00722546   -0.01287894    0.02080085
     atom   14 type  1   force =     0.00948729    0.00075680    0.01276144
     atom   15 type  1   force =     0.03204125    0.02226970    0.01645146
     atom   16 type  1   force =    -0.01828082   -0.00061147   -0.02910109
     atom   17 type  1   force =     0.01709846    0.02087922   -0.03546756
     atom   18 type  1   force =    -0.03358439   -0.03519314    0.01841714
     atom   19 type  1   force =     0.01477314   -0.00408351   -0.04562762
     atom   20 type  1   force =     0.02907507   -0.00779054   -0.03497110
     atom   21 type  1   force =    -0.02744844   -0.01967752   -0.00488396
     atom   22 type  1   force =    -0.01885773    0.05420202    0.02258284
     atom   23 type  1   force =     0.02512497   -0.00473025   -0.01863819
     atom   24 type  1   force =    -0.04849176   -0.02229789    0.04382548
     atom   25 type  1   force =     0.01427958    0.03135223    0.01927735
     atom   26 type  1   force =    -0.02819081    0.04718276   -0.01199895
     atom   27 type  1   force =     0.00109425   -0.04476179    0.02786656
     atom   28 type  1   force =    -0.00941247   -0.00141094    0.00275047
     atom   29 type  1   force =    -0.00153848    0.03352876    0.02698224
     atom   30 type  1   force =    -0.02102397   -0.02249747   -0.01241280
     atom   31 type  1   force =    -0.00204410   -0.00903169    0.00814285
     atom   32 type  1   force =    -0.02986196   -0.01971700   -0.03781630

     Total force =     0.258736     Total SCF correction =     0.000013


     Computing stress (Cartesian axis) and pressure

          total   stress  (Ry/bohr**3)                   (kbar)     P=   23.38
   0.00015781   0.00002375  -0.00002676         23.21      3.49     -3.94
   0.00002375   0.00016202   0.00000767          3.49     23.83      1.13
  -0.00002676   0.00000767   0.00015692         -3.94      1.13     23.08


     Writing output data file pwscf.save

     init_run     :     11.34s CPU     11.93s WALL (       1 calls)
     electrons    :    344.61s CPU    367.96s WALL (       1 calls)
     forces       :      5.58s CPU      5.89s WALL (       1 calls)
     stress       :      7.04s CPU      7.22s WALL (       1 calls)

     Called by init_run:
     wfcinit      :     10.87s CPU     11.24s WALL (       1 calls)
     potinit      :      0.10s CPU      0.15s WALL (       1 calls)

     Called by electrons:
     c_bands      :    308.32s CPU    327.99s WALL (      19 calls)
     sum_band     :     33.27s CPU     36.23s WALL (      19 calls)
     v_of_rho     :      0.14s CPU      0.25s WALL (      19 calls)
     newd         :      1.27s CPU      1.32s WALL (      19 calls)
     PAW_pot      :      1.53s CPU      1.76s WALL (      19 calls)
     mix_rho      :      0.04s CPU      0.07s WALL (      19 calls)

     Called by c_bands:
     init_us_2    :      1.46s CPU      1.51s WALL (    1763 calls)
     cegterg      :    291.46s CPU    300.48s WALL (     817 calls)

     Called by sum_band:
     sum_band:bec :      1.33s CPU      1.34s WALL (     817 calls)
     addusdens    :      0.87s CPU      0.91s WALL (      19 calls)

     Called by *egterg:
     h_psi        :    156.13s CPU    161.45s WALL (    3497 calls)
     s_psi        :     58.82s CPU     59.19s WALL (    3497 calls)
     g_psi        :      0.11s CPU      0.11s WALL (    2637 calls)
     cdiaghg      :     52.87s CPU     53.41s WALL (    3411 calls)

     Called by h_psi:
     h_psi:pot    :    155.84s CPU    161.15s WALL (    3497 calls)
     h_psi:calbec :     61.40s CPU     64.26s WALL (    3497 calls)
     vloc_psi     :     36.40s CPU     38.47s WALL (    3497 calls)
     add_vuspsi   :     58.02s CPU     58.40s WALL (    3497 calls)

     General routines
     calbec       :     89.26s CPU     93.55s WALL (    4529 calls)
     fft          :      0.14s CPU      0.39s WALL (     329 calls)
     ffts         :      0.03s CPU      0.07s WALL (      38 calls)
     fftw         :     41.36s CPU     44.13s WALL (  313722 calls)
     interpolate  :      0.04s CPU      0.11s WALL (      38 calls)

     Parallel routines
     fft_scatt_xy :      1.94s CPU      2.05s WALL (  314089 calls)
     fft_scatt_yz :     12.61s CPU     14.18s WALL (  314089 calls)

     PWSCF        :  6m11.59s CPU     6m44.78s WALL


   This run was terminated on:  13:22:27  28Mar2019            

=------------------------------------------------------------------------------=
   JOB DONE.
=------------------------------------------------------------------------------=
