
     Program PWSCF v.6.2 starts on 28Mar2019 at 12:48:10 

     This program is part of the open-source Quantum ESPRESSO suite
     for quantum simulation of materials; please cite
         "P. Giannozzi et al., J. Phys.:Condens. Matter 21 395502 (2009);
         "P. Giannozzi et al., J. Phys.:Condens. Matter 29 465901 (2017);
          URL http://www.quantum-espresso.org", 
     in publications or presentations arising from this work. More details at
     http://www.quantum-espresso.org/quote

     Parallel version (MPI), running on   128 processors

     MPI processes distributed on     4 nodes
     K-points division:     npool     =       4
     R & G space division:  proc/nbgrp/npool/nimage =      32
     Waiting for input...
     Reading input from standard input

     Current dimensions of program PWSCF are:
     Max number of different atomic species (ntypx) = 10
     Max number of k-points (npk) =  40000
     Max angular momentum in pseudopotentials (lmaxx) =  3
               file Al.pbe-n-kjpaw_psl.1.0.0.UPF: wavefunction(s)  3S 3P renormalized

     Subspace diagonalization in iterative solution of the eigenvalue problem:
     a serial algorithm will be used


     Parallelization info
     --------------------
     sticks:   dense  smooth     PW     G-vecs:    dense   smooth      PW
     Min          82      67     18                 3227     2355     344
     Max          84      68     19                 3230     2358     349
     Sum        2661    2161    593               103311    75421   11067



     bravais-lattice index     =            0
     lattice parameter (alat)  =      15.2917  a.u.
     unit-cell volume          =    3575.7260 (a.u.)^3
     number of atoms/cell      =           32
     number of atomic types    =            1
     number of electrons       =        96.00
     number of Kohn-Sham states=           58
     kinetic-energy cutoff     =      29.0000  Ry
     charge density cutoff     =     143.0000  Ry
     convergence threshold     =      1.0E-10
     mixing beta               =       0.7000
     number of iterations used =            8  plain     mixing
     Exchange-correlation      = SLA PW PBX PBC ( 1  4  3  4 0 0)

     celldm(1)=  15.291664  celldm(2)=   0.000000  celldm(3)=   0.000000
     celldm(4)=   0.000000  celldm(5)=   0.000000  celldm(6)=   0.000000

     crystal axes: (cart. coord. in units of alat)
               a(1) = (   1.000000   0.000000   0.000000 )  
               a(2) = (   0.000000   1.000000   0.000000 )  
               a(3) = (   0.000000   0.000000   1.000000 )  

     reciprocal axes: (cart. coord. in units 2 pi/alat)
               b(1) = (  1.000000  0.000000  0.000000 )  
               b(2) = (  0.000000  1.000000  0.000000 )  
               b(3) = (  0.000000  0.000000  1.000000 )  


     PseudoPot. # 1 for Al read from file:
     /n/home03/jonpvandermause/qe-6.2.1/pseudo/Al.pbe-n-kjpaw_psl.1.0.0.UPF
     MD5 check sum: 502b6b27b9c6270cab5dd1084b96fa6d
     Pseudo is Projector augmented-wave + core cor, Zval =  3.0
     Generated using "atomic" code by A. Dal Corso v.6.3
     Shape of augmentation charge: PSQ
     Using radial grid of 1135 points,  6 beta functions with: 
                l(1) =   0
                l(2) =   0
                l(3) =   1
                l(4) =   1
                l(5) =   2
                l(6) =   2
     Q(r) pseudized with 0 coefficients 


     atomic species   valence    mass     pseudopotential
        Al             3.00    27.00000     Al( 1.00)

     No symmetry found



   Cartesian axes

     site n.     atom                  positions (alat units)
         1           Al  tau(   1) = (  -0.0039595   0.0204807  -0.0151359  )
         2           Al  tau(   2) = (   0.2408663   0.2734095   0.0090274  )
         3           Al  tau(   3) = (   0.0174827   0.2429597   0.2716930  )
         4           Al  tau(   4) = (   0.2359256  -0.0212098   0.2722145  )
         5           Al  tau(   5) = (  -0.0101236  -0.0045119   0.4960442  )
         6           Al  tau(   6) = (   0.2365040   0.2306130   0.5195811  )
         7           Al  tau(   7) = (   0.0122936   0.2534849   0.7576322  )
         8           Al  tau(   8) = (   0.2675568   0.0144785   0.7503374  )
         9           Al  tau(   9) = (   0.0066090   0.5076026   0.0007168  )
        10           Al  tau(  10) = (   0.2368549   0.7429535   0.0235430  )
        11           Al  tau(  11) = (   0.0092338   0.7379263   0.2388693  )
        12           Al  tau(  12) = (   0.2598319   0.4901977   0.2454956  )
        13           Al  tau(  13) = (   0.0232464   0.5070835   0.5028942  )
        14           Al  tau(  14) = (   0.2666720   0.7740806   0.5003201  )
        15           Al  tau(  15) = (   0.0238779   0.7514212   0.7567338  )
        16           Al  tau(  16) = (   0.2424728   0.5116696   0.7598245  )
        17           Al  tau(  17) = (   0.5029869   0.0211172  -0.0022998  )
        18           Al  tau(  18) = (   0.7393104   0.2682625  -0.0240163  )
        19           Al  tau(  19) = (   0.5040460   0.2657353   0.2535603  )
        20           Al  tau(  20) = (   0.7253967   0.0180660   0.2412753  )
        21           Al  tau(  21) = (   0.5081105  -0.0082563   0.5156624  )
        22           Al  tau(  22) = (   0.7412667   0.2276483   0.5244402  )
        23           Al  tau(  23) = (   0.4751520   0.2660776   0.7408008  )
        24           Al  tau(  24) = (   0.7524370  -0.0140534   0.7667091  )
        25           Al  tau(  25) = (   0.5177509   0.4963606   0.0212407  )
        26           Al  tau(  26) = (   0.7687778   0.7476446   0.0192004  )
        27           Al  tau(  27) = (   0.5223393   0.7261159   0.2614298  )
        28           Al  tau(  28) = (   0.7259614   0.4946923   0.2728349  )
        29           Al  tau(  29) = (   0.4786678   0.4986888   0.5042116  )
        30           Al  tau(  30) = (   0.7412173   0.7415892   0.4801569  )
        31           Al  tau(  31) = (   0.5149086   0.7283020   0.7583651  )
        32           Al  tau(  32) = (   0.7585603   0.4904622   0.7369291  )

     number of k points=   172  Methfessel-Paxton smearing, width (Ry)=  0.0100

     Number of k-points >= 100: set verbosity='high' to print them.

     Dense  grid:   103311 G-vectors     FFT dimensions: (  60,  60,  60)

     Smooth grid:    75421 G-vectors     FFT dimensions: (  54,  54,  54)

     Estimated max dynamical RAM per process >      32.14 MB

     Estimated total dynamical RAM >       4.02 GB

     Initial potential from superposition of free atoms

     starting charge   95.92671, renormalised to   96.00000
     Starting wfc are  128 randomized atomic wfcs
     Checking if some PAW data can be deallocated... 

     total cpu time spent up to now is       12.9 secs

     Self-consistent Calculation

     iteration #  1     ecut=    29.00 Ry     beta= 0.70
     Davidson diagonalization with overlap
     ethr =  1.00E-02,  avg # of iterations =  3.0

     Threshold (ethr) on eigenvalues was too large:
     Diagonalizing with lowered threshold

     Davidson diagonalization with overlap
     ethr =  3.23E-04,  avg # of iterations =  3.4

     total cpu time spent up to now is       52.9 secs

     total energy              =   -1263.78929864 Ry
     Harris-Foulkes estimate   =   -1263.96783122 Ry
     estimated scf accuracy    <       0.35181262 Ry

     iteration #  2     ecut=    29.00 Ry     beta= 0.70
     Davidson diagonalization with overlap
     ethr =  3.66E-04,  avg # of iterations =  4.2

     total cpu time spent up to now is       77.1 secs

     total energy              =   -1263.65528269 Ry
     Harris-Foulkes estimate   =   -1264.03236492 Ry
     estimated scf accuracy    <       0.98756055 Ry

     iteration #  3     ecut=    29.00 Ry     beta= 0.70
     Davidson diagonalization with overlap
     ethr =  3.66E-04,  avg # of iterations =  3.7

     total cpu time spent up to now is       99.7 secs

     total energy              =   -1263.80921333 Ry
     Harris-Foulkes estimate   =   -1263.93676196 Ry
     estimated scf accuracy    <       0.44290320 Ry

     iteration #  4     ecut=    29.00 Ry     beta= 0.70
     Davidson diagonalization with overlap
     ethr =  3.66E-04,  avg # of iterations =  2.2

     total cpu time spent up to now is      116.2 secs

     total energy              =   -1263.86723513 Ry
     Harris-Foulkes estimate   =   -1263.89233401 Ry
     estimated scf accuracy    <       0.06615114 Ry

     iteration #  5     ecut=    29.00 Ry     beta= 0.70
     Davidson diagonalization with overlap
     ethr =  6.89E-05,  avg # of iterations =  2.8

     total cpu time spent up to now is      134.0 secs

     total energy              =   -1263.87956871 Ry
     Harris-Foulkes estimate   =   -1263.88092762 Ry
     estimated scf accuracy    <       0.00268834 Ry

     iteration #  6     ecut=    29.00 Ry     beta= 0.70
     Davidson diagonalization with overlap
     ethr =  2.80E-06,  avg # of iterations =  7.1

     total cpu time spent up to now is      170.3 secs

     total energy              =   -1263.88040285 Ry
     Harris-Foulkes estimate   =   -1263.88126849 Ry
     estimated scf accuracy    <       0.00306077 Ry

     iteration #  7     ecut=    29.00 Ry     beta= 0.70
     Davidson diagonalization with overlap
     ethr =  2.80E-06,  avg # of iterations =  2.1

     total cpu time spent up to now is      186.2 secs

     total energy              =   -1263.88081354 Ry
     Harris-Foulkes estimate   =   -1263.88089907 Ry
     estimated scf accuracy    <       0.00030149 Ry

     iteration #  8     ecut=    29.00 Ry     beta= 0.70
     Davidson diagonalization with overlap
     ethr =  3.14E-07,  avg # of iterations =  2.9

     total cpu time spent up to now is      202.5 secs

     total energy              =   -1263.88084834 Ry
     Harris-Foulkes estimate   =   -1263.88085946 Ry
     estimated scf accuracy    <       0.00004010 Ry

     iteration #  9     ecut=    29.00 Ry     beta= 0.70
     Davidson diagonalization with overlap
     ethr =  4.18E-08,  avg # of iterations =  3.1

     total cpu time spent up to now is      221.9 secs

     total energy              =   -1263.88085601 Ry
     Harris-Foulkes estimate   =   -1263.88086002 Ry
     estimated scf accuracy    <       0.00001237 Ry

     iteration # 10     ecut=    29.00 Ry     beta= 0.70
     Davidson diagonalization with overlap
     ethr =  1.29E-08,  avg # of iterations =  2.5

     total cpu time spent up to now is      239.1 secs

     total energy              =   -1263.88085834 Ry
     Harris-Foulkes estimate   =   -1263.88085904 Ry
     estimated scf accuracy    <       0.00000246 Ry

     iteration # 11     ecut=    29.00 Ry     beta= 0.70
     Davidson diagonalization with overlap
     ethr =  2.57E-09,  avg # of iterations =  2.5

     total cpu time spent up to now is      255.3 secs

     total energy              =   -1263.88085860 Ry
     Harris-Foulkes estimate   =   -1263.88085875 Ry
     estimated scf accuracy    <       0.00000039 Ry

     iteration # 12     ecut=    29.00 Ry     beta= 0.70
     Davidson diagonalization with overlap
     ethr =  4.08E-10,  avg # of iterations =  3.2

     total cpu time spent up to now is      274.7 secs

     total energy              =   -1263.88085867 Ry
     Harris-Foulkes estimate   =   -1263.88085873 Ry
     estimated scf accuracy    <       0.00000020 Ry

     iteration # 13     ecut=    29.00 Ry     beta= 0.70
     Davidson diagonalization with overlap
     ethr =  2.10E-10,  avg # of iterations =  2.1

     total cpu time spent up to now is      290.8 secs

     total energy              =   -1263.88085870 Ry
     Harris-Foulkes estimate   =   -1263.88085871 Ry
     estimated scf accuracy    <       0.00000003 Ry

     iteration # 14     ecut=    29.00 Ry     beta= 0.70
     Davidson diagonalization with overlap
     ethr =  3.19E-11,  avg # of iterations =  2.9

     total cpu time spent up to now is      308.5 secs

     total energy              =   -1263.88085871 Ry
     Harris-Foulkes estimate   =   -1263.88085871 Ry
     estimated scf accuracy    <          6.0E-09 Ry

     iteration # 15     ecut=    29.00 Ry     beta= 0.70
     Davidson diagonalization with overlap
     ethr =  6.24E-12,  avg # of iterations =  2.5

     total cpu time spent up to now is      329.8 secs

     total energy              =   -1263.88085871 Ry
     Harris-Foulkes estimate   =   -1263.88085871 Ry
     estimated scf accuracy    <          3.5E-09 Ry

     iteration # 16     ecut=    29.00 Ry     beta= 0.70
     Davidson diagonalization with overlap
     ethr =  3.62E-12,  avg # of iterations =  2.1

     total cpu time spent up to now is      345.2 secs

     total energy              =   -1263.88085871 Ry
     Harris-Foulkes estimate   =   -1263.88085871 Ry
     estimated scf accuracy    <          3.6E-10 Ry

     iteration # 17     ecut=    29.00 Ry     beta= 0.70
     Davidson diagonalization with overlap
     ethr =  3.78E-13,  avg # of iterations =  3.9

     total cpu time spent up to now is      367.6 secs

     total energy              =   -1263.88085871 Ry
     Harris-Foulkes estimate   =   -1263.88085871 Ry
     estimated scf accuracy    <          1.0E-09 Ry

     iteration # 18     ecut=    29.00 Ry     beta= 0.70
     Davidson diagonalization with overlap
     ethr =  3.78E-13,  avg # of iterations =  2.7

     total cpu time spent up to now is      385.7 secs

     total energy              =   -1263.88085871 Ry
     Harris-Foulkes estimate   =   -1263.88085871 Ry
     estimated scf accuracy    <          2.2E-10 Ry

     iteration # 19     ecut=    29.00 Ry     beta= 0.70
     Davidson diagonalization with overlap
     ethr =  2.28E-13,  avg # of iterations =  2.2

     total cpu time spent up to now is      401.8 secs

     End of self-consistent calculation

     Number of k-points >= 100: set verbosity='high' to print the bands.

     the Fermi energy is     7.8204 ev

!    total energy              =   -1263.88085871 Ry
     Harris-Foulkes estimate   =   -1263.88085871 Ry
     estimated scf accuracy    <          2.3E-11 Ry

     total all-electron energy =    -15540.449825 Ry

     The total energy is the sum of the following terms:

     one-electron contribution =      99.41693989 Ry
     hartree contribution      =       0.98536671 Ry
     xc contribution           =     -83.05457413 Ry
     ewald contribution        =    -171.37879191 Ry
     one-center paw contrib.   =   -1109.84988188 Ry
     smearing contrib. (-TS)   =       0.00008261 Ry

     convergence has been achieved in  19 iterations

     Forces acting on atoms (cartesian axes, Ry/au):

     atom    1 type  1   force =     0.01258143   -0.01404970    0.03484769
     atom    2 type  1   force =     0.01828666   -0.03555124   -0.00558759
     atom    3 type  1   force =    -0.03213008    0.01080444   -0.02290108
     atom    4 type  1   force =     0.02676713    0.03976890   -0.04613058
     atom    5 type  1   force =    -0.01388255   -0.01700928    0.01577088
     atom    6 type  1   force =     0.01664029    0.02660921   -0.03704878
     atom    7 type  1   force =    -0.02094647    0.00377954   -0.01078240
     atom    8 type  1   force =    -0.01885595   -0.03771961    0.03082839
     atom    9 type  1   force =    -0.02947490   -0.01983933    0.00394424
     atom   10 type  1   force =     0.05191283    0.02706631   -0.03164095
     atom   11 type  1   force =    -0.02422535    0.00685985    0.04565181
     atom   12 type  1   force =    -0.01430151    0.01726139    0.02545000
     atom   13 type  1   force =    -0.01778664   -0.00016152   -0.00736923
     atom   14 type  1   force =    -0.01361603   -0.04711882    0.02945257
     atom   15 type  1   force =    -0.02557740    0.01824603   -0.01101272
     atom   16 type  1   force =     0.02370217   -0.00539705   -0.00219591
     atom   17 type  1   force =    -0.02328060   -0.01827918    0.00345361
     atom   18 type  1   force =     0.02234631   -0.02397544    0.02212562
     atom   19 type  1   force =    -0.02202254   -0.04336525    0.01212802
     atom   20 type  1   force =     0.03101526   -0.01139471    0.00704520
     atom   21 type  1   force =     0.00266624    0.00778208   -0.01258410
     atom   22 type  1   force =     0.01130667    0.01987992   -0.01761932
     atom   23 type  1   force =     0.02889022   -0.00027970    0.02382418
     atom   24 type  1   force =    -0.00253595   -0.00410330   -0.01606965
     atom   25 type  1   force =    -0.02465299    0.02372929   -0.04227012
     atom   26 type  1   force =    -0.01898877    0.00546601   -0.02090326
     atom   27 type  1   force =    -0.05978133    0.05567429   -0.03025463
     atom   28 type  1   force =     0.07637358   -0.03516212   -0.00453405
     atom   29 type  1   force =     0.00225983   -0.00573028    0.01163937
     atom   30 type  1   force =     0.04130747    0.01553518    0.04670183
     atom   31 type  1   force =    -0.00685992    0.01799826    0.00990680
     atom   32 type  1   force =     0.00286289    0.02267582   -0.00386582

     Total force =     0.251455     Total SCF correction =     0.000007


     Computing stress (Cartesian axis) and pressure

          total   stress  (Ry/bohr**3)                   (kbar)     P=   24.10
   0.00015477  -0.00001921   0.00002653         22.77     -2.83      3.90
  -0.00001921   0.00017019  -0.00002591         -2.83     25.04     -3.81
   0.00002653  -0.00002591   0.00016658          3.90     -3.81     24.50


     Writing output data file pwscf.save

     init_run     :     11.48s CPU     12.04s WALL (       1 calls)
     electrons    :    366.74s CPU    388.95s WALL (       1 calls)
     forces       :      5.61s CPU      5.86s WALL (       1 calls)
     stress       :      7.06s CPU      7.21s WALL (       1 calls)

     Called by init_run:
     wfcinit      :     11.06s CPU     11.41s WALL (       1 calls)
     potinit      :      0.09s CPU      0.14s WALL (       1 calls)

     Called by electrons:
     c_bands      :    328.79s CPU    347.98s WALL (      20 calls)
     sum_band     :     34.64s CPU     36.83s WALL (      20 calls)
     v_of_rho     :      0.15s CPU      0.30s WALL (      20 calls)
     newd         :      1.34s CPU      1.37s WALL (      20 calls)
     PAW_pot      :      1.59s CPU      1.79s WALL (      20 calls)
     mix_rho      :      0.04s CPU      0.09s WALL (      20 calls)

     Called by c_bands:
     init_us_2    :      1.56s CPU      1.61s WALL (    1849 calls)
     cegterg      :    311.81s CPU    320.65s WALL (     860 calls)

     Called by sum_band:
     sum_band:bec :      1.38s CPU      1.40s WALL (     860 calls)
     addusdens    :      0.91s CPU      0.97s WALL (      20 calls)

     Called by *egterg:
     h_psi        :    167.22s CPU    172.69s WALL (    3671 calls)
     s_psi        :     63.69s CPU     63.92s WALL (    3671 calls)
     g_psi        :      0.11s CPU      0.12s WALL (    2768 calls)
     cdiaghg      :     56.36s CPU     56.95s WALL (    3585 calls)

     Called by h_psi:
     h_psi:pot    :    166.93s CPU    172.38s WALL (    3671 calls)
     h_psi:calbec :     65.64s CPU     68.09s WALL (    3671 calls)
     vloc_psi     :     38.59s CPU     41.28s WALL (    3671 calls)
     add_vuspsi   :     62.68s CPU     62.99s WALL (    3671 calls)

     General routines
     calbec       :     95.09s CPU     98.61s WALL (    4746 calls)
     fft          :      0.14s CPU      0.48s WALL (     345 calls)
     ffts         :      0.06s CPU      0.13s WALL (      40 calls)
     fftw         :     43.26s CPU     46.23s WALL (  329206 calls)
     interpolate  :      0.08s CPU      0.18s WALL (      40 calls)

     Parallel routines
     fft_scatt_xy :      2.01s CPU      2.12s WALL (  329591 calls)
     fft_scatt_yz :     13.26s CPU     15.04s WALL (  329591 calls)

     PWSCF        :  6m33.61s CPU     7m 5.84s WALL


   This run was terminated on:  12:55:16  28Mar2019            

=------------------------------------------------------------------------------=
   JOB DONE.
=------------------------------------------------------------------------------=
