
     Program PWSCF v.6.2 starts on 28Mar2019 at 12: 0:30 

     This program is part of the open-source Quantum ESPRESSO suite
     for quantum simulation of materials; please cite
         "P. Giannozzi et al., J. Phys.:Condens. Matter 21 395502 (2009);
         "P. Giannozzi et al., J. Phys.:Condens. Matter 29 465901 (2017);
          URL http://www.quantum-espresso.org", 
     in publications or presentations arising from this work. More details at
     http://www.quantum-espresso.org/quote

     Parallel version (MPI), running on   128 processors

     MPI processes distributed on     4 nodes
     K-points division:     npool     =       4
     R & G space division:  proc/nbgrp/npool/nimage =      32
     Waiting for input...
     Reading input from standard input

     Current dimensions of program PWSCF are:
     Max number of different atomic species (ntypx) = 10
     Max number of k-points (npk) =  40000
     Max angular momentum in pseudopotentials (lmaxx) =  3
               file Al.pbe-n-kjpaw_psl.1.0.0.UPF: wavefunction(s)  3S 3P renormalized

     Subspace diagonalization in iterative solution of the eigenvalue problem:
     a serial algorithm will be used


     Parallelization info
     --------------------
     sticks:   dense  smooth     PW     G-vecs:    dense   smooth      PW
     Min          82      67     18                 3227     2355     344
     Max          84      68     19                 3230     2358     349
     Sum        2661    2161    593               103311    75421   11067



     bravais-lattice index     =            0
     lattice parameter (alat)  =      15.2917  a.u.
     unit-cell volume          =    3575.7260 (a.u.)^3
     number of atoms/cell      =           32
     number of atomic types    =            1
     number of electrons       =        96.00
     number of Kohn-Sham states=           58
     kinetic-energy cutoff     =      29.0000  Ry
     charge density cutoff     =     143.0000  Ry
     convergence threshold     =      1.0E-10
     mixing beta               =       0.7000
     number of iterations used =            8  plain     mixing
     Exchange-correlation      = SLA PW PBX PBC ( 1  4  3  4 0 0)

     celldm(1)=  15.291664  celldm(2)=   0.000000  celldm(3)=   0.000000
     celldm(4)=   0.000000  celldm(5)=   0.000000  celldm(6)=   0.000000

     crystal axes: (cart. coord. in units of alat)
               a(1) = (   1.000000   0.000000   0.000000 )  
               a(2) = (   0.000000   1.000000   0.000000 )  
               a(3) = (   0.000000   0.000000   1.000000 )  

     reciprocal axes: (cart. coord. in units 2 pi/alat)
               b(1) = (  1.000000  0.000000  0.000000 )  
               b(2) = (  0.000000  1.000000  0.000000 )  
               b(3) = (  0.000000  0.000000  1.000000 )  


     PseudoPot. # 1 for Al read from file:
     /n/home03/jonpvandermause/qe-6.2.1/pseudo/Al.pbe-n-kjpaw_psl.1.0.0.UPF
     MD5 check sum: 502b6b27b9c6270cab5dd1084b96fa6d
     Pseudo is Projector augmented-wave + core cor, Zval =  3.0
     Generated using "atomic" code by A. Dal Corso v.6.3
     Shape of augmentation charge: PSQ
     Using radial grid of 1135 points,  6 beta functions with: 
                l(1) =   0
                l(2) =   0
                l(3) =   1
                l(4) =   1
                l(5) =   2
                l(6) =   2
     Q(r) pseudized with 0 coefficients 


     atomic species   valence    mass     pseudopotential
        Al             3.00    27.00000     Al( 1.00)

     No symmetry found



   Cartesian axes

     site n.     atom                  positions (alat units)
         1           Al  tau(   1) = (   0.0017647  -0.0030648  -0.0044081  )
         2           Al  tau(   2) = (   0.2535900   0.2477484   0.0025989  )
         3           Al  tau(   3) = (  -0.0012173   0.2548690   0.2476458  )
         4           Al  tau(   4) = (   0.2535356  -0.0033688   0.2531698  )
         5           Al  tau(   5) = (   0.0024481   0.0013581   0.4974098  )
         6           Al  tau(   6) = (   0.2481068   0.2471243   0.5008317  )
         7           Al  tau(   7) = (  -0.0034219   0.2517548   0.7508440  )
         8           Al  tau(   8) = (   0.2522430  -0.0026322   0.7528720  )
         9           Al  tau(   9) = (  -0.0033403   0.4952163  -0.0049951  )
        10           Al  tau(  10) = (   0.2487939   0.7545366  -0.0049963  )
        11           Al  tau(  11) = (  -0.0024011   0.7535517   0.2450779  )
        12           Al  tau(  12) = (   0.2489422   0.4994192   0.2501112  )
        13           Al  tau(  13) = (   0.0042116   0.4982823   0.5000346  )
        14           Al  tau(  14) = (   0.2536147   0.7491584   0.4998220  )
        15           Al  tau(  15) = (  -0.0045143   0.7544760   0.7456957  )
        16           Al  tau(  16) = (   0.2540262   0.4961369   0.7458762  )
        17           Al  tau(  17) = (   0.5048529   0.0013384   0.0048678  )
        18           Al  tau(  18) = (   0.7549123   0.2537420   0.0025297  )
        19           Al  tau(  19) = (   0.4955017   0.2457872   0.2494476  )
        20           Al  tau(  20) = (   0.7537296  -0.0037741   0.2527336  )
        21           Al  tau(  21) = (   0.5018895   0.0029634   0.4987568  )
        22           Al  tau(  22) = (   0.7482093   0.2514965   0.4989397  )
        23           Al  tau(  23) = (   0.5007934   0.2466980   0.7481241  )
        24           Al  tau(  24) = (   0.7501928   0.0030561   0.7510578  )
        25           Al  tau(  25) = (   0.5041708   0.4971911   0.0011036  )
        26           Al  tau(  26) = (   0.7548072   0.7504696  -0.0000803  )
        27           Al  tau(  27) = (   0.5038297   0.7531438   0.2489570  )
        28           Al  tau(  28) = (   0.7496021   0.4965707   0.2544031  )
        29           Al  tau(  29) = (   0.5026149   0.5043994   0.5034948  )
        30           Al  tau(  30) = (   0.7466238   0.7479696   0.4982353  )
        31           Al  tau(  31) = (   0.5009701   0.7497392   0.7510863  )
        32           Al  tau(  32) = (   0.7546120   0.4997405   0.7472417  )

     number of k points=   172  Methfessel-Paxton smearing, width (Ry)=  0.0100

     Number of k-points >= 100: set verbosity='high' to print them.

     Dense  grid:   103311 G-vectors     FFT dimensions: (  60,  60,  60)

     Smooth grid:    75421 G-vectors     FFT dimensions: (  54,  54,  54)

     Estimated max dynamical RAM per process >      32.14 MB

     Estimated total dynamical RAM >       4.02 GB

     Initial potential from superposition of free atoms

     starting charge   95.92671, renormalised to   96.00000
     Starting wfc are  128 randomized atomic wfcs
     Checking if some PAW data can be deallocated... 

     total cpu time spent up to now is       12.7 secs

     Self-consistent Calculation

     iteration #  1     ecut=    29.00 Ry     beta= 0.70
     Davidson diagonalization with overlap
     ethr =  1.00E-02,  avg # of iterations =  3.0

     Threshold (ethr) on eigenvalues was too large:
     Diagonalizing with lowered threshold

     Davidson diagonalization with overlap
     ethr =  1.87E-04,  avg # of iterations =  4.5

     total cpu time spent up to now is       56.8 secs

     total energy              =   -1264.07570952 Ry
     Harris-Foulkes estimate   =   -1264.12509772 Ry
     estimated scf accuracy    <       0.18301694 Ry

     iteration #  2     ecut=    29.00 Ry     beta= 0.70
     Davidson diagonalization with overlap
     ethr =  1.91E-04,  avg # of iterations =  1.1

     total cpu time spent up to now is       70.0 secs

     total energy              =   -1264.06392788 Ry
     Harris-Foulkes estimate   =   -1264.08594851 Ry
     estimated scf accuracy    <       0.03487181 Ry

     iteration #  3     ecut=    29.00 Ry     beta= 0.70
     Davidson diagonalization with overlap
     ethr =  3.63E-05,  avg # of iterations =  5.8

     total cpu time spent up to now is      102.6 secs

     total energy              =   -1264.03574572 Ry
     Harris-Foulkes estimate   =   -1264.11576057 Ry
     estimated scf accuracy    <       0.29092767 Ry

     iteration #  4     ecut=    29.00 Ry     beta= 0.70
     Davidson diagonalization with overlap
     ethr =  3.63E-05,  avg # of iterations =  4.4

     total cpu time spent up to now is      126.6 secs

     total energy              =   -1264.07681639 Ry
     Harris-Foulkes estimate   =   -1264.08148264 Ry
     estimated scf accuracy    <       0.01828549 Ry

     iteration #  5     ecut=    29.00 Ry     beta= 0.70
     Davidson diagonalization with overlap
     ethr =  1.90E-05,  avg # of iterations =  2.0

     total cpu time spent up to now is      141.7 secs

     total energy              =   -1264.07860792 Ry
     Harris-Foulkes estimate   =   -1264.07900123 Ry
     estimated scf accuracy    <       0.00169838 Ry

     iteration #  6     ecut=    29.00 Ry     beta= 0.70
     Davidson diagonalization with overlap
     ethr =  1.77E-06,  avg # of iterations =  5.0

     total cpu time spent up to now is      164.9 secs

     total energy              =   -1264.07887979 Ry
     Harris-Foulkes estimate   =   -1264.07891002 Ry
     estimated scf accuracy    <       0.00008921 Ry

     iteration #  7     ecut=    29.00 Ry     beta= 0.70
     Davidson diagonalization with overlap
     ethr =  9.29E-08,  avg # of iterations =  3.9

     total cpu time spent up to now is      187.2 secs

     total energy              =   -1264.07891023 Ry
     Harris-Foulkes estimate   =   -1264.07892237 Ry
     estimated scf accuracy    <       0.00005186 Ry

     iteration #  8     ecut=    29.00 Ry     beta= 0.70
     Davidson diagonalization with overlap
     ethr =  5.40E-08,  avg # of iterations =  2.1

     total cpu time spent up to now is      202.6 secs

     total energy              =   -1264.07891400 Ry
     Harris-Foulkes estimate   =   -1264.07891730 Ry
     estimated scf accuracy    <       0.00001541 Ry

     iteration #  9     ecut=    29.00 Ry     beta= 0.70
     Davidson diagonalization with overlap
     ethr =  1.60E-08,  avg # of iterations =  2.0

     total cpu time spent up to now is      216.8 secs

     total energy              =   -1264.07891474 Ry
     Harris-Foulkes estimate   =   -1264.07891537 Ry
     estimated scf accuracy    <       0.00000257 Ry

     iteration # 10     ecut=    29.00 Ry     beta= 0.70
     Davidson diagonalization with overlap
     ethr =  2.68E-09,  avg # of iterations =  3.8

     total cpu time spent up to now is      238.1 secs

     total energy              =   -1264.07891554 Ry
     Harris-Foulkes estimate   =   -1264.07891562 Ry
     estimated scf accuracy    <       0.00000052 Ry

     iteration # 11     ecut=    29.00 Ry     beta= 0.70
     Davidson diagonalization with overlap
     ethr =  5.45E-10,  avg # of iterations =  2.2

     total cpu time spent up to now is      254.1 secs

     total energy              =   -1264.07891553 Ry
     Harris-Foulkes estimate   =   -1264.07891561 Ry
     estimated scf accuracy    <       0.00000041 Ry

     iteration # 12     ecut=    29.00 Ry     beta= 0.70
     Davidson diagonalization with overlap
     ethr =  4.27E-10,  avg # of iterations =  1.3

     total cpu time spent up to now is      267.5 secs

     total energy              =   -1264.07891554 Ry
     Harris-Foulkes estimate   =   -1264.07891556 Ry
     estimated scf accuracy    <       0.00000007 Ry

     iteration # 13     ecut=    29.00 Ry     beta= 0.70
     Davidson diagonalization with overlap
     ethr =  7.47E-11,  avg # of iterations =  3.6

     total cpu time spent up to now is      287.7 secs

     total energy              =   -1264.07891556 Ry
     Harris-Foulkes estimate   =   -1264.07891556 Ry
     estimated scf accuracy    <          9.0E-09 Ry

     iteration # 14     ecut=    29.00 Ry     beta= 0.70
     Davidson diagonalization with overlap
     ethr =  9.40E-12,  avg # of iterations =  2.2

     total cpu time spent up to now is      304.1 secs

     total energy              =   -1264.07891556 Ry
     Harris-Foulkes estimate   =   -1264.07891556 Ry
     estimated scf accuracy    <          3.6E-09 Ry

     iteration # 15     ecut=    29.00 Ry     beta= 0.70
     Davidson diagonalization with overlap
     ethr =  3.75E-12,  avg # of iterations =  2.4

     total cpu time spent up to now is      320.0 secs

     total energy              =   -1264.07891556 Ry
     Harris-Foulkes estimate   =   -1264.07891556 Ry
     estimated scf accuracy    <          5.9E-10 Ry

     iteration # 16     ecut=    29.00 Ry     beta= 0.70
     Davidson diagonalization with overlap
     ethr =  6.17E-13,  avg # of iterations =  2.8

     total cpu time spent up to now is      337.0 secs

     End of self-consistent calculation

     Number of k-points >= 100: set verbosity='high' to print the bands.

     the Fermi energy is     7.8451 ev

!    total energy              =   -1264.07891556 Ry
     Harris-Foulkes estimate   =   -1264.07891556 Ry
     estimated scf accuracy    <          5.7E-11 Ry

     total all-electron energy =    -15540.647882 Ry

     The total energy is the sum of the following terms:

     one-electron contribution =     100.91118576 Ry
     hartree contribution      =       0.22473527 Ry
     xc contribution           =     -82.84850850 Ry
     ewald contribution        =    -172.63463844 Ry
     one-center paw contrib.   =   -1109.73164185 Ry
     smearing contrib. (-TS)   =      -0.00004779 Ry

     convergence has been achieved in  16 iterations

     Forces acting on atoms (cartesian axes, Ry/au):

     atom    1 type  1   force =    -0.00005431    0.00897641    0.00582548
     atom    2 type  1   force =    -0.00492804    0.00146081   -0.00478620
     atom    3 type  1   force =     0.00412471   -0.00927212    0.00199909
     atom    4 type  1   force =    -0.00680198    0.00177099   -0.00460478
     atom    5 type  1   force =    -0.00232043   -0.00066911    0.00280038
     atom    6 type  1   force =     0.00247585    0.00205824   -0.00066537
     atom    7 type  1   force =     0.00755374   -0.00594558   -0.00334582
     atom    8 type  1   force =    -0.00042132    0.00511730   -0.00551645
     atom    9 type  1   force =     0.01146676    0.01141274    0.00434672
     atom   10 type  1   force =     0.00296410   -0.01250130    0.00577521
     atom   11 type  1   force =     0.00667863   -0.00910370    0.00584163
     atom   12 type  1   force =     0.00339548    0.00452529   -0.00316647
     atom   13 type  1   force =    -0.00284322    0.00556019   -0.00188196
     atom   14 type  1   force =    -0.00452518    0.00070611   -0.00048657
     atom   15 type  1   force =     0.00685488   -0.00671200   -0.00130927
     atom   16 type  1   force =    -0.00437830    0.00397032    0.00871923
     atom   17 type  1   force =    -0.00032970   -0.00169942   -0.00642467
     atom   18 type  1   force =    -0.00878428   -0.00850349   -0.00130289
     atom   19 type  1   force =     0.00703065    0.00751895    0.00400316
     atom   20 type  1   force =    -0.00104307    0.00917982   -0.00319987
     atom   21 type  1   force =    -0.00010845   -0.00472851    0.00404964
     atom   22 type  1   force =     0.00268216   -0.00305108    0.00016148
     atom   23 type  1   force =     0.00036828    0.00423994    0.00409500
     atom   24 type  1   force =    -0.00092583   -0.00278004   -0.00205547
     atom   25 type  1   force =    -0.00358628    0.00478358   -0.00129918
     atom   26 type  1   force =    -0.00675246   -0.00350820   -0.00199849
     atom   27 type  1   force =    -0.00517156   -0.00780705   -0.00235073
     atom   28 type  1   force =    -0.00060980    0.00563993   -0.00457149
     atom   29 type  1   force =    -0.00400506   -0.00793675   -0.00624258
     atom   30 type  1   force =     0.00696247    0.00419036    0.00279174
     atom   31 type  1   force =     0.00196938    0.00137325    0.00247293
     atom   32 type  1   force =    -0.00693781    0.00173411    0.00232657

     Total force =     0.049994     Total SCF correction =     0.000010


     Computing stress (Cartesian axis) and pressure

          total   stress  (Ry/bohr**3)                   (kbar)     P=   -3.37
  -0.00002232  -0.00000059   0.00000129         -3.28     -0.09      0.19
  -0.00000059  -0.00002281  -0.00000025         -0.09     -3.36     -0.04
   0.00000129  -0.00000025  -0.00002357          0.19     -0.04     -3.47


     Writing output data file pwscf.save

     init_run     :     11.31s CPU     11.92s WALL (       1 calls)
     electrons    :    302.96s CPU    324.41s WALL (       1 calls)
     forces       :      5.61s CPU      5.91s WALL (       1 calls)
     stress       :      7.03s CPU      7.22s WALL (       1 calls)

     Called by init_run:
     wfcinit      :     10.89s CPU     11.28s WALL (       1 calls)
     potinit      :      0.12s CPU      0.17s WALL (       1 calls)

     Called by electrons:
     c_bands      :    270.77s CPU    289.40s WALL (      17 calls)
     sum_band     :     29.32s CPU     31.30s WALL (      17 calls)
     v_of_rho     :      0.12s CPU      0.23s WALL (      17 calls)
     newd         :      1.18s CPU      1.25s WALL (      17 calls)
     PAW_pot      :      1.41s CPU      1.67s WALL (      17 calls)
     mix_rho      :      0.03s CPU      0.06s WALL (      17 calls)

     Called by c_bands:
     init_us_2    :      1.34s CPU      1.38s WALL (    1591 calls)
     cegterg      :    254.33s CPU    262.07s WALL (     731 calls)

     Called by sum_band:
     sum_band:bec :      1.19s CPU      1.20s WALL (     731 calls)
     addusdens    :      0.78s CPU      0.82s WALL (      17 calls)

     Called by *egterg:
     h_psi        :    136.82s CPU    141.41s WALL (    3120 calls)
     s_psi        :     51.88s CPU     52.19s WALL (    3120 calls)
     g_psi        :      0.09s CPU      0.09s WALL (    2346 calls)
     cdiaghg      :     46.89s CPU     47.40s WALL (    3034 calls)

     Called by h_psi:
     h_psi:pot    :    136.57s CPU    141.15s WALL (    3120 calls)
     h_psi:calbec :     53.72s CPU     56.22s WALL (    3120 calls)
     vloc_psi     :     31.84s CPU     33.61s WALL (    3120 calls)
     add_vuspsi   :     50.99s CPU     51.31s WALL (    3120 calls)

     General routines
     calbec       :     79.27s CPU     82.81s WALL (    4066 calls)
     fft          :      0.13s CPU      0.34s WALL (     297 calls)
     ffts         :      0.02s CPU      0.05s WALL (      34 calls)
     fftw         :     35.89s CPU     37.86s WALL (  274458 calls)
     interpolate  :      0.03s CPU      0.09s WALL (      34 calls)

     Parallel routines
     fft_scatt_xy :      1.70s CPU      1.79s WALL (  274789 calls)
     fft_scatt_yz :     10.49s CPU     11.42s WALL (  274789 calls)

     PWSCF        :  5m29.91s CPU     6m 1.07s WALL


   This run was terminated on:  12: 6:31  28Mar2019            

=------------------------------------------------------------------------------=
   JOB DONE.
=------------------------------------------------------------------------------=
