
     Program PWSCF v.6.2 starts on 28Mar2019 at 11:47:22 

     This program is part of the open-source Quantum ESPRESSO suite
     for quantum simulation of materials; please cite
         "P. Giannozzi et al., J. Phys.:Condens. Matter 21 395502 (2009);
         "P. Giannozzi et al., J. Phys.:Condens. Matter 29 465901 (2017);
          URL http://www.quantum-espresso.org", 
     in publications or presentations arising from this work. More details at
     http://www.quantum-espresso.org/quote

     Parallel version (MPI), running on   128 processors

     MPI processes distributed on     4 nodes
     K-points division:     npool     =       4
     R & G space division:  proc/nbgrp/npool/nimage =      32
     Waiting for input...
     Reading input from standard input

     Current dimensions of program PWSCF are:
     Max number of different atomic species (ntypx) = 10
     Max number of k-points (npk) =  40000
     Max angular momentum in pseudopotentials (lmaxx) =  3
               file Al.pbe-n-kjpaw_psl.1.0.0.UPF: wavefunction(s)  3S 3P renormalized

     Subspace diagonalization in iterative solution of the eigenvalue problem:
     a serial algorithm will be used


     Parallelization info
     --------------------
     sticks:   dense  smooth     PW     G-vecs:    dense   smooth      PW
     Min          82      67     18                 3227     2355     344
     Max          84      68     19                 3230     2358     349
     Sum        2661    2161    593               103311    75421   11067



     bravais-lattice index     =            0
     lattice parameter (alat)  =      15.2917  a.u.
     unit-cell volume          =    3575.7260 (a.u.)^3
     number of atoms/cell      =           32
     number of atomic types    =            1
     number of electrons       =        96.00
     number of Kohn-Sham states=           58
     kinetic-energy cutoff     =      29.0000  Ry
     charge density cutoff     =     143.0000  Ry
     convergence threshold     =      1.0E-10
     mixing beta               =       0.7000
     number of iterations used =            8  plain     mixing
     Exchange-correlation      = SLA PW PBX PBC ( 1  4  3  4 0 0)

     celldm(1)=  15.291664  celldm(2)=   0.000000  celldm(3)=   0.000000
     celldm(4)=   0.000000  celldm(5)=   0.000000  celldm(6)=   0.000000

     crystal axes: (cart. coord. in units of alat)
               a(1) = (   1.000000   0.000000   0.000000 )  
               a(2) = (   0.000000   1.000000   0.000000 )  
               a(3) = (   0.000000   0.000000   1.000000 )  

     reciprocal axes: (cart. coord. in units 2 pi/alat)
               b(1) = (  1.000000  0.000000  0.000000 )  
               b(2) = (  0.000000  1.000000  0.000000 )  
               b(3) = (  0.000000  0.000000  1.000000 )  


     PseudoPot. # 1 for Al read from file:
     /n/home03/jonpvandermause/qe-6.2.1/pseudo/Al.pbe-n-kjpaw_psl.1.0.0.UPF
     MD5 check sum: 502b6b27b9c6270cab5dd1084b96fa6d
     Pseudo is Projector augmented-wave + core cor, Zval =  3.0
     Generated using "atomic" code by A. Dal Corso v.6.3
     Shape of augmentation charge: PSQ
     Using radial grid of 1135 points,  6 beta functions with: 
                l(1) =   0
                l(2) =   0
                l(3) =   1
                l(4) =   1
                l(5) =   2
                l(6) =   2
     Q(r) pseudized with 0 coefficients 


     atomic species   valence    mass     pseudopotential
        Al             3.00    27.00000     Al( 1.00)

     No symmetry found



   Cartesian axes

     site n.     atom                  positions (alat units)
         1           Al  tau(   1) = (  -0.0033379   0.0036901  -0.0032130  )
         2           Al  tau(   2) = (   0.2498999   0.2492758  -0.0043685  )
         3           Al  tau(   3) = (   0.0049444   0.2524419   0.2481167  )
         4           Al  tau(   4) = (   0.2488260   0.0009058   0.2531006  )
         5           Al  tau(   5) = (  -0.0036493  -0.0007378   0.4965311  )
         6           Al  tau(   6) = (   0.2544612   0.2488334   0.4950321  )
         7           Al  tau(   7) = (   0.0044748   0.2546194   0.7531562  )
         8           Al  tau(   8) = (   0.2527558  -0.0012494   0.7517227  )
         9           Al  tau(   9) = (  -0.0008589   0.4968450  -0.0008626  )
        10           Al  tau(  10) = (   0.2519315   0.7505944  -0.0014694  )
        11           Al  tau(  11) = (   0.0015942   0.7495860   0.2488816  )
        12           Al  tau(  12) = (   0.2486604   0.4992894   0.2533601  )
        13           Al  tau(  13) = (   0.0023999   0.5015287   0.5035133  )
        14           Al  tau(  14) = (   0.2541856   0.7486765   0.4950136  )
        15           Al  tau(  15) = (  -0.0013285   0.7529177   0.7518846  )
        16           Al  tau(  16) = (   0.2505981   0.4961097   0.7518648  )
        17           Al  tau(  17) = (   0.4956327  -0.0029115  -0.0018784  )
        18           Al  tau(  18) = (   0.7490719   0.2546021  -0.0030264  )
        19           Al  tau(  19) = (   0.5005573   0.2454783   0.2450853  )
        20           Al  tau(  20) = (   0.7527274  -0.0016102   0.2537741  )
        21           Al  tau(  21) = (   0.4954511   0.0000136   0.5027731  )
        22           Al  tau(  22) = (   0.7476619   0.2514236   0.5018735  )
        23           Al  tau(  23) = (   0.4993228   0.2539644   0.7486184  )
        24           Al  tau(  24) = (   0.7479325   0.0017486   0.7459812  )
        25           Al  tau(  25) = (   0.5036221   0.4988693  -0.0026409  )
        26           Al  tau(  26) = (   0.7533354   0.7489162  -0.0012481  )
        27           Al  tau(  27) = (   0.4958391   0.7490077   0.2460208  )
        28           Al  tau(  28) = (   0.7495440   0.4995922   0.2457934  )
        29           Al  tau(  29) = (   0.4994649   0.4989990   0.5043080  )
        30           Al  tau(  30) = (   0.7529721   0.7463433   0.5020044  )
        31           Al  tau(  31) = (   0.4991300   0.7537692   0.7465077  )
        32           Al  tau(  32) = (   0.7530845   0.5004721   0.7542165  )

     number of k points=   172  Methfessel-Paxton smearing, width (Ry)=  0.0100

     Number of k-points >= 100: set verbosity='high' to print them.

     Dense  grid:   103311 G-vectors     FFT dimensions: (  60,  60,  60)

     Smooth grid:    75421 G-vectors     FFT dimensions: (  54,  54,  54)

     Estimated max dynamical RAM per process >      32.14 MB

     Estimated total dynamical RAM >       4.02 GB

     Initial potential from superposition of free atoms

     starting charge   95.92671, renormalised to   96.00000
     Starting wfc are  128 randomized atomic wfcs
     Checking if some PAW data can be deallocated... 

     total cpu time spent up to now is       12.8 secs

     Self-consistent Calculation

     iteration #  1     ecut=    29.00 Ry     beta= 0.70
     Davidson diagonalization with overlap
     ethr =  1.00E-02,  avg # of iterations =  3.0

     Threshold (ethr) on eigenvalues was too large:
     Diagonalizing with lowered threshold

     Davidson diagonalization with overlap
     ethr =  1.88E-04,  avg # of iterations =  4.4

     total cpu time spent up to now is       56.1 secs

     total energy              =   -1264.07497420 Ry
     Harris-Foulkes estimate   =   -1264.12541399 Ry
     estimated scf accuracy    <       0.18439593 Ry

     iteration #  2     ecut=    29.00 Ry     beta= 0.70
     Davidson diagonalization with overlap
     ethr =  1.92E-04,  avg # of iterations =  1.3

     total cpu time spent up to now is       69.7 secs

     total energy              =   -1264.06043560 Ry
     Harris-Foulkes estimate   =   -1264.08733156 Ry
     estimated scf accuracy    <       0.04141947 Ry

     iteration #  3     ecut=    29.00 Ry     beta= 0.70
     Davidson diagonalization with overlap
     ethr =  4.31E-05,  avg # of iterations =  5.6

     total cpu time spent up to now is      101.8 secs

     total energy              =   -1264.03013354 Ry
     Harris-Foulkes estimate   =   -1264.12039624 Ry
     estimated scf accuracy    <       0.33038588 Ry

     iteration #  4     ecut=    29.00 Ry     beta= 0.70
     Davidson diagonalization with overlap
     ethr =  4.31E-05,  avg # of iterations =  4.3

     total cpu time spent up to now is      125.6 secs

     total energy              =   -1264.07648537 Ry
     Harris-Foulkes estimate   =   -1264.08204548 Ry
     estimated scf accuracy    <       0.02144286 Ry

     iteration #  5     ecut=    29.00 Ry     beta= 0.70
     Davidson diagonalization with overlap
     ethr =  2.23E-05,  avg # of iterations =  2.0

     total cpu time spent up to now is      140.8 secs

     total energy              =   -1264.07867763 Ry
     Harris-Foulkes estimate   =   -1264.07913472 Ry
     estimated scf accuracy    <       0.00204950 Ry

     iteration #  6     ecut=    29.00 Ry     beta= 0.70
     Davidson diagonalization with overlap
     ethr =  2.13E-06,  avg # of iterations =  4.8

     total cpu time spent up to now is      163.2 secs

     total energy              =   -1264.07897807 Ry
     Harris-Foulkes estimate   =   -1264.07905503 Ry
     estimated scf accuracy    <       0.00028946 Ry

     iteration #  7     ecut=    29.00 Ry     beta= 0.70
     Davidson diagonalization with overlap
     ethr =  3.02E-07,  avg # of iterations =  2.7

     total cpu time spent up to now is      181.0 secs

     total energy              =   -1264.07902475 Ry
     Harris-Foulkes estimate   =   -1264.07904012 Ry
     estimated scf accuracy    <       0.00004438 Ry

     iteration #  8     ecut=    29.00 Ry     beta= 0.70
     Davidson diagonalization with overlap
     ethr =  4.62E-08,  avg # of iterations =  3.2

     total cpu time spent up to now is      200.1 secs

     total energy              =   -1264.07903370 Ry
     Harris-Foulkes estimate   =   -1264.07903602 Ry
     estimated scf accuracy    <       0.00001051 Ry

     iteration #  9     ecut=    29.00 Ry     beta= 0.70
     Davidson diagonalization with overlap
     ethr =  1.10E-08,  avg # of iterations =  2.0

     total cpu time spent up to now is      215.9 secs

     total energy              =   -1264.07903423 Ry
     Harris-Foulkes estimate   =   -1264.07903540 Ry
     estimated scf accuracy    <       0.00000458 Ry

     iteration # 10     ecut=    29.00 Ry     beta= 0.70
     Davidson diagonalization with overlap
     ethr =  4.77E-09,  avg # of iterations =  2.6

     total cpu time spent up to now is      232.4 secs

     total energy              =   -1264.07903467 Ry
     Harris-Foulkes estimate   =   -1264.07903496 Ry
     estimated scf accuracy    <       0.00000094 Ry

     iteration # 11     ecut=    29.00 Ry     beta= 0.70
     Davidson diagonalization with overlap
     ethr =  9.74E-10,  avg # of iterations =  2.9

     total cpu time spent up to now is      250.1 secs

     total energy              =   -1264.07903485 Ry
     Harris-Foulkes estimate   =   -1264.07903488 Ry
     estimated scf accuracy    <       0.00000010 Ry

     iteration # 12     ecut=    29.00 Ry     beta= 0.70
     Davidson diagonalization with overlap
     ethr =  1.04E-10,  avg # of iterations =  3.0

     total cpu time spent up to now is      269.2 secs

     total energy              =   -1264.07903487 Ry
     Harris-Foulkes estimate   =   -1264.07903487 Ry
     estimated scf accuracy    <       0.00000001 Ry

     iteration # 13     ecut=    29.00 Ry     beta= 0.70
     Davidson diagonalization with overlap
     ethr =  1.24E-11,  avg # of iterations =  3.4

     total cpu time spent up to now is      289.4 secs

     total energy              =   -1264.07903487 Ry
     Harris-Foulkes estimate   =   -1264.07903487 Ry
     estimated scf accuracy    <       0.00000001 Ry

     iteration # 14     ecut=    29.00 Ry     beta= 0.70
     Davidson diagonalization with overlap
     ethr =  1.10E-11,  avg # of iterations =  2.4

     total cpu time spent up to now is      306.4 secs

     total energy              =   -1264.07903487 Ry
     Harris-Foulkes estimate   =   -1264.07903487 Ry
     estimated scf accuracy    <          2.5E-09 Ry

     iteration # 15     ecut=    29.00 Ry     beta= 0.70
     Davidson diagonalization with overlap
     ethr =  2.56E-12,  avg # of iterations =  2.4

     total cpu time spent up to now is      322.9 secs

     total energy              =   -1264.07903487 Ry
     Harris-Foulkes estimate   =   -1264.07903487 Ry
     estimated scf accuracy    <          1.7E-10 Ry

     iteration # 16     ecut=    29.00 Ry     beta= 0.70
     Davidson diagonalization with overlap
     ethr =  1.81E-13,  avg # of iterations =  3.4

     total cpu time spent up to now is      344.2 secs

     total energy              =   -1264.07903487 Ry
     Harris-Foulkes estimate   =   -1264.07903487 Ry
     estimated scf accuracy    <          1.2E-10 Ry

     iteration # 17     ecut=    29.00 Ry     beta= 0.70
     Davidson diagonalization with overlap
     ethr =  1.30E-13,  avg # of iterations =  2.7

     total cpu time spent up to now is      362.1 secs

     total energy              =   -1264.07903487 Ry
     Harris-Foulkes estimate   =   -1264.07903487 Ry
     estimated scf accuracy    <          1.2E-10 Ry

     iteration # 18     ecut=    29.00 Ry     beta= 0.70
     Davidson diagonalization with overlap
     ethr =  1.23E-13,  avg # of iterations =  2.2

     total cpu time spent up to now is      378.1 secs

     End of self-consistent calculation

     Number of k-points >= 100: set verbosity='high' to print the bands.

     the Fermi energy is     7.8451 ev

!    total energy              =   -1264.07903487 Ry
     Harris-Foulkes estimate   =   -1264.07903487 Ry
     estimated scf accuracy    <          1.4E-11 Ry

     total all-electron energy =    -15540.648001 Ry

     The total energy is the sum of the following terms:

     one-electron contribution =     100.89933317 Ry
     hartree contribution      =       0.23045419 Ry
     xc contribution           =     -82.84876871 Ry
     ewald contribution        =    -172.62854560 Ry
     one-center paw contrib.   =   -1109.73146227 Ry
     smearing contrib. (-TS)   =      -0.00004566 Ry

     convergence has been achieved in  18 iterations

     Forces acting on atoms (cartesian axes, Ry/au):

     atom    1 type  1   force =     0.00215603   -0.00264656    0.00450303
     atom    2 type  1   force =     0.00323064   -0.00003751    0.00782568
     atom    3 type  1   force =    -0.00816097   -0.00243676    0.00295188
     atom    4 type  1   force =    -0.00128580   -0.00194433   -0.00758436
     atom    5 type  1   force =     0.00681076    0.00329697    0.00766891
     atom    6 type  1   force =    -0.00684605    0.00018948    0.00706197
     atom    7 type  1   force =    -0.00501457   -0.00928028   -0.01099482
     atom    8 type  1   force =    -0.00873962    0.00234259   -0.00596565
     atom    9 type  1   force =     0.00586261    0.00769852    0.00403514
     atom   10 type  1   force =    -0.00576842   -0.00442753    0.00073855
     atom   11 type  1   force =    -0.00083469   -0.00075807   -0.00159101
     atom   12 type  1   force =     0.00476787   -0.00060104   -0.00763075
     atom   13 type  1   force =    -0.00240103   -0.00238303   -0.00328996
     atom   14 type  1   force =    -0.00738030    0.00101436    0.00846417
     atom   15 type  1   force =     0.00642696   -0.00105489   -0.00337891
     atom   16 type  1   force =     0.00012644    0.01029494   -0.00273472
     atom   17 type  1   force =     0.00972574    0.00401888    0.00279035
     atom   18 type  1   force =     0.00041562   -0.01225691    0.00380106
     atom   19 type  1   force =     0.00198209    0.00428042    0.00294949
     atom   20 type  1   force =    -0.00644151    0.00164715   -0.00635458
     atom   21 type  1   force =     0.00805763   -0.00040518   -0.00675052
     atom   22 type  1   force =     0.00495611    0.00095339   -0.00464763
     atom   23 type  1   force =     0.00200191   -0.00633741    0.00159848
     atom   24 type  1   force =     0.00136577    0.00115503    0.00490398
     atom   25 type  1   force =    -0.00755828    0.00417079    0.00351576
     atom   26 type  1   force =    -0.00531905    0.00546279    0.00205235
     atom   27 type  1   force =     0.00934794    0.00016757    0.00395084
     atom   28 type  1   force =    -0.00012551    0.00032783    0.00900552
     atom   29 type  1   force =     0.00401252    0.00211066   -0.00774819
     atom   30 type  1   force =    -0.00567424    0.00115182   -0.00492926
     atom   31 type  1   force =     0.00324625   -0.00771136    0.00351479
     atom   32 type  1   force =    -0.00294287    0.00199769   -0.00773162

     Total force =     0.051310     Total SCF correction =     0.000005


     Computing stress (Cartesian axis) and pressure

          total   stress  (Ry/bohr**3)                   (kbar)     P=   -3.39
  -0.00002376  -0.00000025   0.00000216         -3.50     -0.04      0.32
  -0.00000025  -0.00002255  -0.00000066         -0.04     -3.32     -0.10
   0.00000216  -0.00000066  -0.00002292          0.32     -0.10     -3.37


     Writing output data file pwscf.save

     init_run     :     11.43s CPU     11.99s WALL (       1 calls)
     electrons    :    344.50s CPU    365.33s WALL (       1 calls)
     forces       :      5.65s CPU      5.94s WALL (       1 calls)
     stress       :      7.02s CPU      7.17s WALL (       1 calls)

     Called by init_run:
     wfcinit      :     11.01s CPU     11.34s WALL (       1 calls)
     potinit      :      0.10s CPU      0.15s WALL (       1 calls)

     Called by electrons:
     c_bands      :    308.38s CPU    326.34s WALL (      19 calls)
     sum_band     :     33.03s CPU     35.15s WALL (      19 calls)
     v_of_rho     :      0.14s CPU      0.27s WALL (      19 calls)
     newd         :      1.27s CPU      1.31s WALL (      19 calls)
     PAW_pot      :      1.55s CPU      1.81s WALL (      19 calls)
     mix_rho      :      0.03s CPU      0.07s WALL (      19 calls)

     Called by c_bands:
     init_us_2    :      1.53s CPU      1.57s WALL (    1763 calls)
     cegterg      :    292.06s CPU    300.02s WALL (     817 calls)

     Called by sum_band:
     sum_band:bec :      1.32s CPU      1.33s WALL (     817 calls)
     addusdens    :      0.88s CPU      0.93s WALL (      19 calls)

     Called by *egterg:
     h_psi        :    157.30s CPU    162.20s WALL (    3540 calls)
     s_psi        :     59.83s CPU     60.14s WALL (    3540 calls)
     g_psi        :      0.11s CPU      0.11s WALL (    2680 calls)
     cdiaghg      :     53.01s CPU     53.57s WALL (    3454 calls)

     Called by h_psi:
     h_psi:pot    :    157.02s CPU    161.90s WALL (    3540 calls)
     h_psi:calbec :     61.84s CPU     64.18s WALL (    3540 calls)
     vloc_psi     :     36.04s CPU     38.28s WALL (    3540 calls)
     add_vuspsi   :     59.11s CPU     59.42s WALL (    3540 calls)

     General routines
     calbec       :     90.05s CPU     93.36s WALL (    4572 calls)
     fft          :      0.16s CPU      0.42s WALL (     329 calls)
     ffts         :      0.03s CPU      0.08s WALL (      38 calls)
     fftw         :     40.57s CPU     43.02s WALL (  310390 calls)
     interpolate  :      0.05s CPU      0.13s WALL (      38 calls)

     Parallel routines
     fft_scatt_xy :      1.91s CPU      2.01s WALL (  310757 calls)
     fft_scatt_yz :     12.20s CPU     13.46s WALL (  310757 calls)

     PWSCF        :  6m10.88s CPU     6m42.12s WALL


   This run was terminated on:  11:54: 4  28Mar2019            

=------------------------------------------------------------------------------=
   JOB DONE.
=------------------------------------------------------------------------------=
