
     Program PWSCF v.6.2 starts on 28Mar2019 at 11:28:17 

     This program is part of the open-source Quantum ESPRESSO suite
     for quantum simulation of materials; please cite
         "P. Giannozzi et al., J. Phys.:Condens. Matter 21 395502 (2009);
         "P. Giannozzi et al., J. Phys.:Condens. Matter 29 465901 (2017);
          URL http://www.quantum-espresso.org", 
     in publications or presentations arising from this work. More details at
     http://www.quantum-espresso.org/quote

     Parallel version (MPI), running on   128 processors

     MPI processes distributed on     4 nodes
     K-points division:     npool     =       4
     R & G space division:  proc/nbgrp/npool/nimage =      32
     Waiting for input...
     Reading input from standard input

     Current dimensions of program PWSCF are:
     Max number of different atomic species (ntypx) = 10
     Max number of k-points (npk) =  40000
     Max angular momentum in pseudopotentials (lmaxx) =  3
               file Al.pbe-n-kjpaw_psl.1.0.0.UPF: wavefunction(s)  3S 3P renormalized

     Subspace diagonalization in iterative solution of the eigenvalue problem:
     a serial algorithm will be used


     Parallelization info
     --------------------
     sticks:   dense  smooth     PW     G-vecs:    dense   smooth      PW
     Min          82      67     18                 3227     2355     344
     Max          84      68     19                 3230     2358     349
     Sum        2661    2161    593               103311    75421   11067



     bravais-lattice index     =            0
     lattice parameter (alat)  =      15.2917  a.u.
     unit-cell volume          =    3575.7260 (a.u.)^3
     number of atoms/cell      =           32
     number of atomic types    =            1
     number of electrons       =        96.00
     number of Kohn-Sham states=           58
     kinetic-energy cutoff     =      29.0000  Ry
     charge density cutoff     =     143.0000  Ry
     convergence threshold     =      1.0E-10
     mixing beta               =       0.7000
     number of iterations used =            8  plain     mixing
     Exchange-correlation      = SLA PW PBX PBC ( 1  4  3  4 0 0)

     celldm(1)=  15.291664  celldm(2)=   0.000000  celldm(3)=   0.000000
     celldm(4)=   0.000000  celldm(5)=   0.000000  celldm(6)=   0.000000

     crystal axes: (cart. coord. in units of alat)
               a(1) = (   1.000000   0.000000   0.000000 )  
               a(2) = (   0.000000   1.000000   0.000000 )  
               a(3) = (   0.000000   0.000000   1.000000 )  

     reciprocal axes: (cart. coord. in units 2 pi/alat)
               b(1) = (  1.000000  0.000000  0.000000 )  
               b(2) = (  0.000000  1.000000  0.000000 )  
               b(3) = (  0.000000  0.000000  1.000000 )  


     PseudoPot. # 1 for Al read from file:
     /n/home03/jonpvandermause/qe-6.2.1/pseudo/Al.pbe-n-kjpaw_psl.1.0.0.UPF
     MD5 check sum: 502b6b27b9c6270cab5dd1084b96fa6d
     Pseudo is Projector augmented-wave + core cor, Zval =  3.0
     Generated using "atomic" code by A. Dal Corso v.6.3
     Shape of augmentation charge: PSQ
     Using radial grid of 1135 points,  6 beta functions with: 
                l(1) =   0
                l(2) =   0
                l(3) =   1
                l(4) =   1
                l(5) =   2
                l(6) =   2
     Q(r) pseudized with 0 coefficients 


     atomic species   valence    mass     pseudopotential
        Al             3.00    27.00000     Al( 1.00)

     No symmetry found



   Cartesian axes

     site n.     atom                  positions (alat units)
         1           Al  tau(   1) = (  -0.0019550   0.0049555   0.0033230  )
         2           Al  tau(   2) = (   0.2502966   0.2530635   0.0001866  )
         3           Al  tau(   3) = (   0.0038285   0.2510764   0.2496218  )
         4           Al  tau(   4) = (   0.2518710   0.0005289   0.2486493  )
         5           Al  tau(   5) = (   0.0015460  -0.0035838   0.5035690  )
         6           Al  tau(   6) = (   0.2515843   0.2532192   0.4954523  )
         7           Al  tau(   7) = (  -0.0016312   0.2455969   0.7465250  )
         8           Al  tau(   8) = (   0.2538050  -0.0029263   0.7500383  )
         9           Al  tau(   9) = (   0.0001532   0.5047343  -0.0022294  )
        10           Al  tau(  10) = (   0.2504844   0.7494217   0.0008984  )
        11           Al  tau(  11) = (   0.0044760   0.7451458   0.2521812  )
        12           Al  tau(  12) = (   0.2490336   0.5025482   0.2474790  )
        13           Al  tau(  13) = (   0.0036555   0.4999654   0.5006228  )
        14           Al  tau(  14) = (   0.2489397   0.7539224   0.4971218  )
        15           Al  tau(  15) = (  -0.0027212   0.7521540   0.7464236  )
        16           Al  tau(  16) = (   0.2523974   0.5029622   0.7475136  )
        17           Al  tau(  17) = (   0.5040645  -0.0012778   0.0049469  )
        18           Al  tau(  18) = (   0.7468660   0.2502410   0.0010418  )
        19           Al  tau(  19) = (   0.4978028   0.2528089   0.2470341  )
        20           Al  tau(  20) = (   0.7473245  -0.0007081   0.2460690  )
        21           Al  tau(  21) = (   0.4965645  -0.0049753   0.4993772  )
        22           Al  tau(  22) = (   0.7480783   0.2518376   0.4965472  )
        23           Al  tau(  23) = (   0.5001421   0.2497763   0.7455783  )
        24           Al  tau(  24) = (   0.7531055   0.0031772   0.7539582  )
        25           Al  tau(  25) = (   0.4989829   0.4968413   0.0021849  )
        26           Al  tau(  26) = (   0.7516312   0.7493043   0.0020044  )
        27           Al  tau(  27) = (   0.5026730   0.7515769   0.2475037  )
        28           Al  tau(  28) = (   0.7462729   0.5037123   0.2511826  )
        29           Al  tau(  29) = (   0.4970749   0.4987852   0.4977842  )
        30           Al  tau(  30) = (   0.7467981   0.7536258   0.4980561  )
        31           Al  tau(  31) = (   0.4997454   0.7514212   0.7528930  )
        32           Al  tau(  32) = (   0.7465262   0.5039496   0.7451854  )

     number of k points=   172  Methfessel-Paxton smearing, width (Ry)=  0.0100

     Number of k-points >= 100: set verbosity='high' to print them.

     Dense  grid:   103311 G-vectors     FFT dimensions: (  60,  60,  60)

     Smooth grid:    75421 G-vectors     FFT dimensions: (  54,  54,  54)

     Estimated max dynamical RAM per process >      32.14 MB

     Estimated total dynamical RAM >       4.02 GB

     Initial potential from superposition of free atoms

     starting charge   95.92671, renormalised to   96.00000
     Starting wfc are  128 randomized atomic wfcs
     Checking if some PAW data can be deallocated... 

     total cpu time spent up to now is       12.9 secs

     Self-consistent Calculation

     iteration #  1     ecut=    29.00 Ry     beta= 0.70
     Davidson diagonalization with overlap
     ethr =  1.00E-02,  avg # of iterations =  3.0

     Threshold (ethr) on eigenvalues was too large:
     Diagonalizing with lowered threshold

     Davidson diagonalization with overlap
     ethr =  1.88E-04,  avg # of iterations =  4.4

     total cpu time spent up to now is       56.2 secs

     total energy              =   -1264.07594437 Ry
     Harris-Foulkes estimate   =   -1264.12639586 Ry
     estimated scf accuracy    <       0.18403453 Ry

     iteration #  2     ecut=    29.00 Ry     beta= 0.70
     Davidson diagonalization with overlap
     ethr =  1.92E-04,  avg # of iterations =  2.0

     total cpu time spent up to now is       74.0 secs

     total energy              =   -1264.05203384 Ry
     Harris-Foulkes estimate   =   -1264.09120841 Ry
     estimated scf accuracy    <       0.05914676 Ry

     iteration #  3     ecut=    29.00 Ry     beta= 0.70
     Davidson diagonalization with overlap
     ethr =  6.16E-05,  avg # of iterations =  5.3

     total cpu time spent up to now is      105.6 secs

     total energy              =   -1264.01946220 Ry
     Harris-Foulkes estimate   =   -1264.13455843 Ry
     estimated scf accuracy    <       0.44214616 Ry

     iteration #  4     ecut=    29.00 Ry     beta= 0.70
     Davidson diagonalization with overlap
     ethr =  6.16E-05,  avg # of iterations =  4.0

     total cpu time spent up to now is      133.4 secs

     total energy              =   -1264.07814379 Ry
     Harris-Foulkes estimate   =   -1264.08258759 Ry
     estimated scf accuracy    <       0.01664934 Ry

     iteration #  5     ecut=    29.00 Ry     beta= 0.70
     Davidson diagonalization with overlap
     ethr =  1.73E-05,  avg # of iterations =  2.0

     total cpu time spent up to now is      148.9 secs

     total energy              =   -1264.07998524 Ry
     Harris-Foulkes estimate   =   -1264.08041587 Ry
     estimated scf accuracy    <       0.00209705 Ry

     iteration #  6     ecut=    29.00 Ry     beta= 0.70
     Davidson diagonalization with overlap
     ethr =  2.18E-06,  avg # of iterations =  5.1

     total cpu time spent up to now is      171.2 secs

     total energy              =   -1264.08022663 Ry
     Harris-Foulkes estimate   =   -1264.08031055 Ry
     estimated scf accuracy    <       0.00037652 Ry

     iteration #  7     ecut=    29.00 Ry     beta= 0.70
     Davidson diagonalization with overlap
     ethr =  3.92E-07,  avg # of iterations =  2.6

     total cpu time spent up to now is      188.3 secs

     total energy              =   -1264.08027551 Ry
     Harris-Foulkes estimate   =   -1264.08029078 Ry
     estimated scf accuracy    <       0.00004661 Ry

     iteration #  8     ecut=    29.00 Ry     beta= 0.70
     Davidson diagonalization with overlap
     ethr =  4.85E-08,  avg # of iterations =  3.9

     total cpu time spent up to now is      209.1 secs

     total energy              =   -1264.08028778 Ry
     Harris-Foulkes estimate   =   -1264.08028974 Ry
     estimated scf accuracy    <       0.00000881 Ry

     iteration #  9     ecut=    29.00 Ry     beta= 0.70
     Davidson diagonalization with overlap
     ethr =  9.18E-09,  avg # of iterations =  2.0

     total cpu time spent up to now is      224.9 secs

     total energy              =   -1264.08028816 Ry
     Harris-Foulkes estimate   =   -1264.08028915 Ry
     estimated scf accuracy    <       0.00000409 Ry

     iteration # 10     ecut=    29.00 Ry     beta= 0.70
     Davidson diagonalization with overlap
     ethr =  4.26E-09,  avg # of iterations =  2.4

     total cpu time spent up to now is      240.9 secs

     total energy              =   -1264.08028844 Ry
     Harris-Foulkes estimate   =   -1264.08028880 Ry
     estimated scf accuracy    <       0.00000122 Ry

     iteration # 11     ecut=    29.00 Ry     beta= 0.70
     Davidson diagonalization with overlap
     ethr =  1.27E-09,  avg # of iterations =  2.4

     total cpu time spent up to now is      257.4 secs

     total energy              =   -1264.08028864 Ry
     Harris-Foulkes estimate   =   -1264.08028866 Ry
     estimated scf accuracy    <       0.00000006 Ry

     iteration # 12     ecut=    29.00 Ry     beta= 0.70
     Davidson diagonalization with overlap
     ethr =  5.79E-11,  avg # of iterations =  4.0

     total cpu time spent up to now is      280.4 secs

     total energy              =   -1264.08028866 Ry
     Harris-Foulkes estimate   =   -1264.08028867 Ry
     estimated scf accuracy    <       0.00000002 Ry

     iteration # 13     ecut=    29.00 Ry     beta= 0.70
     Davidson diagonalization with overlap
     ethr =  1.63E-11,  avg # of iterations =  2.3

     total cpu time spent up to now is      297.6 secs

     total energy              =   -1264.08028866 Ry
     Harris-Foulkes estimate   =   -1264.08028867 Ry
     estimated scf accuracy    <       0.00000001 Ry

     iteration # 14     ecut=    29.00 Ry     beta= 0.70
     Davidson diagonalization with overlap
     ethr =  1.46E-11,  avg # of iterations =  2.3

     total cpu time spent up to now is      313.9 secs

     total energy              =   -1264.08028867 Ry
     Harris-Foulkes estimate   =   -1264.08028867 Ry
     estimated scf accuracy    <          1.2E-09 Ry

     iteration # 15     ecut=    29.00 Ry     beta= 0.70
     Davidson diagonalization with overlap
     ethr =  1.25E-12,  avg # of iterations =  3.0

     total cpu time spent up to now is      332.3 secs

     total energy              =   -1264.08028867 Ry
     Harris-Foulkes estimate   =   -1264.08028867 Ry
     estimated scf accuracy    <          1.7E-10 Ry

     iteration # 16     ecut=    29.00 Ry     beta= 0.70
     Davidson diagonalization with overlap
     ethr =  1.72E-13,  avg # of iterations =  3.1

     total cpu time spent up to now is      351.6 secs

     total energy              =   -1264.08028867 Ry
     Harris-Foulkes estimate   =   -1264.08028867 Ry
     estimated scf accuracy    <          1.5E-10 Ry

     iteration # 17     ecut=    29.00 Ry     beta= 0.70
     Davidson diagonalization with overlap
     ethr =  1.61E-13,  avg # of iterations =  2.8

     total cpu time spent up to now is      369.5 secs

     total energy              =   -1264.08028867 Ry
     Harris-Foulkes estimate   =   -1264.08028867 Ry
     estimated scf accuracy    <          1.2E-10 Ry

     iteration # 18     ecut=    29.00 Ry     beta= 0.70
     Davidson diagonalization with overlap
     ethr =  1.25E-13,  avg # of iterations =  2.2

     total cpu time spent up to now is      385.5 secs

     End of self-consistent calculation

     Number of k-points >= 100: set verbosity='high' to print the bands.

     the Fermi energy is     7.8456 ev

!    total energy              =   -1264.08028867 Ry
     Harris-Foulkes estimate   =   -1264.08028867 Ry
     estimated scf accuracy    <          6.3E-12 Ry

     total all-electron energy =    -15540.649255 Ry

     The total energy is the sum of the following terms:

     one-electron contribution =     100.90672395 Ry
     hartree contribution      =       0.22685948 Ry
     xc contribution           =     -82.84691528 Ry
     ewald contribution        =    -172.63628731 Ry
     one-center paw contrib.   =   -1109.73062697 Ry
     smearing contrib. (-TS)   =      -0.00004253 Ry

     convergence has been achieved in  18 iterations

     Forces acting on atoms (cartesian axes, Ry/au):

     atom    1 type  1   force =     0.00568641   -0.00687533   -0.00233123
     atom    2 type  1   force =    -0.00162380   -0.00401182   -0.00684373
     atom    3 type  1   force =    -0.00766631    0.00037770    0.00081309
     atom    4 type  1   force =    -0.00327127    0.00075652    0.00000609
     atom    5 type  1   force =    -0.00337986    0.00728857   -0.00882682
     atom    6 type  1   force =    -0.00267461   -0.00591632    0.00534079
     atom    7 type  1   force =     0.00411902    0.00888533    0.00387177
     atom    8 type  1   force =    -0.00416042    0.00627444    0.00405109
     atom    9 type  1   force =    -0.00303757   -0.00783232   -0.00252685
     atom   10 type  1   force =    -0.00147151    0.00398022   -0.00334228
     atom   11 type  1   force =    -0.00782652    0.00879889   -0.00258786
     atom   12 type  1   force =     0.00241117   -0.00120769    0.00185876
     atom   13 type  1   force =    -0.00649072   -0.00074615    0.00031083
     atom   14 type  1   force =     0.00373966   -0.00659258    0.00290687
     atom   15 type  1   force =     0.00327119   -0.00250254    0.00619843
     atom   16 type  1   force =    -0.00383432   -0.00256557    0.00263867
     atom   17 type  1   force =    -0.00734351    0.00323794   -0.00972328
     atom   18 type  1   force =     0.00548922    0.00653812   -0.00264480
     atom   19 type  1   force =     0.00261491   -0.00473581    0.00498285
     atom   20 type  1   force =     0.00815256    0.00375960    0.00992737
     atom   21 type  1   force =     0.00619064    0.00873263    0.00073822
     atom   22 type  1   force =     0.00264673   -0.00433436   -0.00015233
     atom   23 type  1   force =    -0.00072669   -0.00155401    0.00427582
     atom   24 type  1   force =    -0.00684052   -0.00320947   -0.00521813
     atom   25 type  1   force =     0.00200018    0.00529846   -0.00657208
     atom   26 type  1   force =     0.00101093   -0.00016928   -0.00454992
     atom   27 type  1   force =    -0.00566507   -0.00397761    0.00270927
     atom   28 type  1   force =     0.00753892   -0.00474869   -0.00082513
     atom   29 type  1   force =     0.00167320    0.00571204    0.00063641
     atom   30 type  1   force =     0.00318125   -0.00222444    0.00200344
     atom   31 type  1   force =     0.00233724   -0.00178429   -0.00167115
     atom   32 type  1   force =     0.00394948   -0.00465218    0.00454580

     Total force =     0.046350     Total SCF correction =     0.000003


     Computing stress (Cartesian axis) and pressure

          total   stress  (Ry/bohr**3)                   (kbar)     P=   -3.58
  -0.00002361  -0.00000077   0.00000027         -3.47     -0.11      0.04
  -0.00000077  -0.00002390  -0.00000110         -0.11     -3.52     -0.16
   0.00000027  -0.00000110  -0.00002553          0.04     -0.16     -3.76


     Writing output data file pwscf.save

     init_run     :     11.43s CPU     12.09s WALL (       1 calls)
     electrons    :    345.43s CPU    372.67s WALL (       1 calls)
     forces       :      5.58s CPU      5.85s WALL (       1 calls)
     stress       :      7.00s CPU      7.17s WALL (       1 calls)

     Called by init_run:
     wfcinit      :     10.94s CPU     11.34s WALL (       1 calls)
     potinit      :      0.10s CPU      0.14s WALL (       1 calls)

     Called by electrons:
     c_bands      :    309.18s CPU    332.79s WALL (      19 calls)
     sum_band     :     32.86s CPU     35.38s WALL (      19 calls)
     v_of_rho     :      0.15s CPU      0.27s WALL (      19 calls)
     newd         :      1.31s CPU      1.39s WALL (      19 calls)
     PAW_pot      :      1.68s CPU      2.09s WALL (      19 calls)
     mix_rho      :      0.04s CPU      0.07s WALL (      19 calls)

     Called by c_bands:
     init_us_2    :      1.47s CPU      1.51s WALL (    1763 calls)
     cegterg      :    290.76s CPU    302.16s WALL (     817 calls)

     Called by sum_band:
     sum_band:bec :      1.33s CPU      1.34s WALL (     817 calls)
     addusdens    :      0.88s CPU      0.95s WALL (      19 calls)

     Called by *egterg:
     h_psi        :    155.69s CPU    162.44s WALL (    3568 calls)
     s_psi        :     58.09s CPU     58.38s WALL (    3568 calls)
     g_psi        :      0.10s CPU      0.11s WALL (    2708 calls)
     cdiaghg      :     53.05s CPU     53.67s WALL (    3482 calls)

     Called by h_psi:
     h_psi:pot    :    155.40s CPU    162.14s WALL (    3568 calls)
     h_psi:calbec :     61.25s CPU     64.62s WALL (    3568 calls)
     vloc_psi     :     37.09s CPU     40.14s WALL (    3568 calls)
     add_vuspsi   :     57.04s CPU     57.35s WALL (    3568 calls)

     General routines
     calbec       :     89.00s CPU     93.60s WALL (    4600 calls)
     fft          :      0.19s CPU      0.46s WALL (     329 calls)
     ffts         :      0.03s CPU      0.07s WALL (      38 calls)
     fftw         :     41.63s CPU     44.91s WALL (  310138 calls)
     interpolate  :      0.06s CPU      0.14s WALL (      38 calls)

     Parallel routines
     fft_scatt_xy :      1.93s CPU      2.03s WALL (  310505 calls)
     fft_scatt_yz :     12.95s CPU     15.07s WALL (  310505 calls)

     PWSCF        :  6m11.87s CPU     6m49.00s WALL


   This run was terminated on:  11:35: 6  28Mar2019            

=------------------------------------------------------------------------------=
   JOB DONE.
=------------------------------------------------------------------------------=
