LAMMPS (29 Oct 2020)
# generic lammps input file
units metal
atom_style atomic
dimension  3
boundary   p p p
newton on
read_data tmp.data
Reading data file ...
  triclinic box = (0.0000000 0.0000000 0.0000000) to (1.0000000 1.0000000 1.0000000) with tilt (0.0000000 0.0000000 0.0000000)
  1 by 1 by 1 MPI processor grid
  reading atoms ...
  4 atoms
  read_data CPU = 0.003 seconds

pair_style flare
pair_coeff * * beta.txt
Reading potential file beta.txt with DATE: Sun

thermo_style one

dump 1 all custom 1 tmp.dump id type x y z fx fy fz
dump_modify 1 sort id
run 0
WARNING: No fixes defined, atoms won't move (../verlet.cpp:54)
Neighbor list info ...
  update every 1 steps, delay 10 steps, check yes
  max neighbors/atom: 2000, page size: 100000
  master list distance cutoff = 3
  ghost atom cutoff = 3
  binsize = 1.5, bins = 1 1 1
  1 neighbor lists, perpetual/occasional/extra = 1 0 0
  (1) pair flare, perpetual
      attributes: full, newton on
      pair build: full/bin/atomonly
      stencil: full/bin/3d
      bin: standard
WARNING: Proc sub-domain size < neighbor skin, could lead to lost atoms (../domain.cpp:963)
Per MPI rank memory allocation (min/avg/max) = 4.284 | 4.284 | 4.284 Mbytes
Step Temp E_pair E_mol TotEng Press 
       0            0 2.0557401e-11            0 2.0557401e-11 3.7584242e-06 
Loop time of 3.09944e-06 on 1 procs for 0 steps with 4 atoms

64.5% CPU use with 1 MPI tasks x no OpenMP threads

MPI task timing breakdown:
Section |  min time  |  avg time  |  max time  |%varavg| %total
---------------------------------------------------------------
Pair    | 0          | 0          | 0          |   0.0 |  0.00
Neigh   | 0          | 0          | 0          |   0.0 |  0.00
Comm    | 0          | 0          | 0          |   0.0 |  0.00
Output  | 0          | 0          | 0          |   0.0 |  0.00
Modify  | 0          | 0          | 0          |   0.0 |  0.00
Other   |            | 3.099e-06  |            |       |100.00

Nlocal:        4.00000 ave           4 max           4 min
Histogram: 1 0 0 0 0 0 0 0 0 0
Nghost:        1368.00 ave        1368 max        1368 min
Histogram: 1 0 0 0 0 0 0 0 0 0
Neighs:        0.00000 ave           0 max           0 min
Histogram: 1 0 0 0 0 0 0 0 0 0
FullNghs:      1830.00 ave        1830 max        1830 min
Histogram: 1 0 0 0 0 0 0 0 0 0

Total # of neighbors = 1830
Ave neighs/atom = 457.50000
Neighbor list builds = 0
Dangerous builds = 0
Total wall time: 0:00:00
