
     Program PWSCF v.6.2 starts on  7Oct2018 at 17:18:47 

     This program is part of the open-source Quantum ESPRESSO suite
     for quantum simulation of materials; please cite
         "P. Giannozzi et al., J. Phys.:Condens. Matter 21 395502 (2009);
         "P. Giannozzi et al., J. Phys.:Condens. Matter 29 465901 (2017);
          URL http://www.quantum-espresso.org", 
     in publications or presentations arising from this work. More details at
     http://www.quantum-espresso.org/quote

     Parallel version (MPI), running on    32 processors

     MPI processes distributed on     1 nodes
     R & G space division:  proc/nbgrp/npool/nimage =      32
     Waiting for input...
     Reading input from standard input

     Current dimensions of program PWSCF are:
     Max number of different atomic species (ntypx) = 10
     Max number of k-points (npk) =  40000
     Max angular momentum in pseudopotentials (lmaxx) =  3
               file C.pz-rrkjus.UPF: wavefunction(s)  2S renormalized

     Subspace diagonalization in iterative solution of the eigenvalue problem:
     a serial algorithm will be used


     Parallelization info
     --------------------
     sticks:   dense  smooth     PW     G-vecs:    dense   smooth      PW
     Min          28      14      4                  567      199      37
     Max          29      15      5                  570      202      40
     Sum         925     451    151                18197     6423    1243



     bravais-lattice index     =            0
     lattice parameter (alat)  =       4.7116  a.u.
     unit-cell volume          =      73.9577 (a.u.)^3
     number of atoms/cell      =            2
     number of atomic types    =            1
     number of electrons       =         8.00
     number of Kohn-Sham states=            4
     kinetic-energy cutoff     =      75.0000  Ry
     charge density cutoff     =     600.0000  Ry
     convergence threshold     =      1.0E-10
     mixing beta               =       0.7000
     number of iterations used =            8  plain     mixing
     Exchange-correlation      = SLA PZ NOGX NOGC ( 1  1  0  0 0 0)

     celldm(1)=   4.711576  celldm(2)=   0.000000  celldm(3)=   0.000000
     celldm(4)=   0.000000  celldm(5)=   0.000000  celldm(6)=   0.000000

     crystal axes: (cart. coord. in units of alat)
               a(1) = (   0.000000   0.707107   0.707107 )  
               a(2) = (   0.707107   0.000000   0.707107 )  
               a(3) = (   0.707107   0.707107   0.000000 )  

     reciprocal axes: (cart. coord. in units 2 pi/alat)
               b(1) = ( -0.707107  0.707107  0.707107 )  
               b(2) = (  0.707107 -0.707107  0.707107 )  
               b(3) = (  0.707107  0.707107 -0.707107 )  


     PseudoPot. # 1 for C  read from file:
     /n/holylfs/LABS/kozinsky_lab/Software/qe-6.2.1/pseudo/C.pz-rrkjus.UPF
     MD5 check sum: b6daa4d29350031528385b7e2af80775
     Pseudo is Ultrasoft, Zval =  4.0
     Generated by new atomic code, or converted to UPF format
     Using radial grid of 1425 points,  4 beta functions with: 
                l(1) =   0
                l(2) =   0
                l(3) =   1
                l(4) =   1
     Q(r) pseudized with 0 coefficients 


     atomic species   valence    mass     pseudopotential
        C              4.00    12.01100     C ( 1.00)

     48 Sym. Ops., with inversion, found (24 have fractional translation)



   Cartesian axes

     site n.     atom                  positions (alat units)
         1           C   tau(   1) = (   0.0000000   0.0000000   0.0000000  )
         2           C   tau(   2) = (   0.3535534   0.3535534   0.3535534  )

     number of k points=   752

     Number of k-points >= 100: set verbosity='high' to print them.

     Dense  grid:    18197 G-vectors     FFT dimensions: (  40,  40,  40)

     Smooth grid:     6423 G-vectors     FFT dimensions: (  25,  25,  25)

     Estimated max dynamical RAM per process >       2.44 MB

     Estimated total dynamical RAM >      78.17 MB

     Initial potential from superposition of free atoms

     starting charge    7.99992, renormalised to    8.00000
     Starting wfc are    8 randomized atomic wfcs

     total cpu time spent up to now is        1.3 secs

     Self-consistent Calculation

     iteration #  1     ecut=    75.00 Ry     beta= 0.70
     Davidson diagonalization with overlap
     ethr =  1.00E-02,  avg # of iterations =  2.9

     total cpu time spent up to now is        2.6 secs

     total energy              =     -22.84084905 Ry
     Harris-Foulkes estimate   =     -22.91150987 Ry
     estimated scf accuracy    <       0.13048390 Ry

     iteration #  2     ecut=    75.00 Ry     beta= 0.70
     Davidson diagonalization with overlap
     ethr =  1.63E-03,  avg # of iterations =  1.9

     total cpu time spent up to now is        3.7 secs

     total energy              =     -22.85467778 Ry
     Harris-Foulkes estimate   =     -22.85638002 Ry
     estimated scf accuracy    <       0.00430266 Ry

     iteration #  3     ecut=    75.00 Ry     beta= 0.70
     Davidson diagonalization with overlap
     ethr =  5.38E-05,  avg # of iterations =  3.1

     total cpu time spent up to now is        5.2 secs

     total energy              =     -22.85851445 Ry
     Harris-Foulkes estimate   =     -22.85875507 Ry
     estimated scf accuracy    <       0.00042775 Ry

     iteration #  4     ecut=    75.00 Ry     beta= 0.70
     Davidson diagonalization with overlap
     ethr =  5.35E-06,  avg # of iterations =  2.8

     total cpu time spent up to now is        6.5 secs

     total energy              =     -22.85860081 Ry
     Harris-Foulkes estimate   =     -22.85861287 Ry
     estimated scf accuracy    <       0.00002415 Ry

     iteration #  5     ecut=    75.00 Ry     beta= 0.70
     Davidson diagonalization with overlap
     ethr =  3.02E-07,  avg # of iterations =  2.4

     total cpu time spent up to now is        7.6 secs

     total energy              =     -22.85860538 Ry
     Harris-Foulkes estimate   =     -22.85860538 Ry
     estimated scf accuracy    <       0.00000002 Ry

     iteration #  6     ecut=    75.00 Ry     beta= 0.70
     Davidson diagonalization with overlap
     ethr =  2.92E-10,  avg # of iterations =  4.9

     total cpu time spent up to now is        9.7 secs

     total energy              =     -22.85860677 Ry
     Harris-Foulkes estimate   =     -22.85860595 Ry
     estimated scf accuracy    <       0.00000005 Ry

     iteration #  7     ecut=    75.00 Ry     beta= 0.70
     Davidson diagonalization with overlap
     ethr =  2.92E-10,  avg # of iterations =  2.9

     total cpu time spent up to now is       11.0 secs

     End of self-consistent calculation

     Number of k-points >= 100: set verbosity='high' to print the bands.

     highest occupied level (ev):    13.6818

!    total energy              =     -22.85860678 Ry
     Harris-Foulkes estimate   =     -22.85860678 Ry
     estimated scf accuracy    <          4.7E-11 Ry

     The total energy is the sum of the following terms:

     one-electron contribution =       8.25884716 Ry
     hartree contribution      =       1.88080927 Ry
     xc contribution           =      -7.12808055 Ry
     ewald contribution        =     -25.87018266 Ry

     convergence has been achieved in   7 iterations

     Forces acting on atoms (cartesian axes, Ry/au):

     atom    1 type  1   force =    -0.00000000   -0.00000000    0.00000000
     atom    2 type  1   force =     0.00000000    0.00000000   -0.00000000

     Total force =     0.000000     Total SCF correction =     0.000000


     Computing stress (Cartesian axis) and pressure

          total   stress  (Ry/bohr**3)                   (kbar)     P=    2.88
   0.00001959  -0.00000000  -0.00000000          2.88     -0.00     -0.00
  -0.00000000   0.00001959  -0.00000000         -0.00      2.88     -0.00
  -0.00000000  -0.00000000   0.00001959         -0.00     -0.00      2.88


     Writing output data file pwscf.save

     init_run     :      0.72s CPU      0.87s WALL (       1 calls)
     electrons    :      8.64s CPU      9.82s WALL (       1 calls)
     forces       :      0.12s CPU      0.13s WALL (       1 calls)
     stress       :      0.19s CPU      0.21s WALL (       1 calls)

     Called by init_run:
     wfcinit      :      0.61s CPU      0.72s WALL (       1 calls)
     potinit      :      0.03s CPU      0.04s WALL (       1 calls)

     Called by electrons:
     c_bands      :      7.61s CPU      8.59s WALL (       7 calls)
     sum_band     :      0.89s CPU      1.02s WALL (       7 calls)
     v_of_rho     :      0.01s CPU      0.01s WALL (       8 calls)
     newd         :      0.00s CPU      0.01s WALL (       8 calls)
     mix_rho      :      0.00s CPU      0.01s WALL (       7 calls)

     Called by c_bands:
     init_us_2    :      0.10s CPU      0.12s WALL (   12784 calls)
     cegterg      :      7.40s CPU      8.35s WALL (    5264 calls)

     Called by sum_band:
     sum_band:bec :      0.01s CPU      0.01s WALL (    5264 calls)
     addusdens    :      0.00s CPU      0.01s WALL (       7 calls)

     Called by *egterg:
     h_psi        :      5.78s CPU      6.53s WALL (   21671 calls)
     s_psi        :      0.10s CPU      0.11s WALL (   21671 calls)
     g_psi        :      0.02s CPU      0.03s WALL (   15655 calls)
     cdiaghg      :      0.87s CPU      0.98s WALL (   20919 calls)

     Called by h_psi:
     h_psi:pot    :      5.73s CPU      6.47s WALL (   21671 calls)
     h_psi:calbec :      0.43s CPU      0.48s WALL (   21671 calls)
     vloc_psi     :      5.12s CPU      5.78s WALL (   21671 calls)
     add_vuspsi   :      0.10s CPU      0.11s WALL (   21671 calls)

     General routines
     calbec       :      0.62s CPU      0.68s WALL (   30695 calls)
     fft          :      0.05s CPU      0.06s WALL (      73 calls)
     ffts         :      0.00s CPU      0.01s WALL (      15 calls)
     fftw         :      5.41s CPU      6.11s WALL (  173926 calls)
     interpolate  :      0.02s CPU      0.02s WALL (      15 calls)

     Parallel routines
     fft_scatt_xy :      0.25s CPU      0.29s WALL (  174014 calls)
     fft_scatt_yz :      3.06s CPU      3.46s WALL (  174014 calls)

     PWSCF        :    10.64s CPU        21.08s WALL


   This run was terminated on:  17:19: 8   7Oct2018            

=------------------------------------------------------------------------------=
   JOB DONE.
=------------------------------------------------------------------------------=
