LAMMPS (16 Mar 2018)
# (written by ASE)
clear
variable dump_file string "/n/scratchlfs/kozinsky_lab/xiey/flare/tests/test_mff/lmp_tmp/trj_lammps000001lw_x8xy7"
variable data_file string "/n/scratchlfs/kozinsky_lab/xiey/flare/tests/test_mff/lmp_tmp/data_lammps000001qfpsb_19"
units metal
boundary p p p
atom_modify sort 0 0.0

read_data /n/scratchlfs/kozinsky_lab/xiey/flare/tests/test_mff/lmp_tmp/data_lammps000001qfpsb_19
  triclinic box = (0 0 0) to (25.5102 22.0925 20) with tilt (-12.7551 0 0)
  1 by 1 by 1 MPI processor grid
  reading atoms ...
  200 atoms

### interactions
pair_style airebo 3.0
pair_coeff * * /n/home08/xiey/lammps-16Mar18/potentials/CH.airebo C
Reading potential file /n/home08/xiey/lammps-16Mar18/potentials/CH.airebo with DATE: 2011-10-25
mass * 12.0107

### run
fix fix_nve all nve
dump dump_all all custom 1 /n/scratchlfs/kozinsky_lab/xiey/flare/tests/test_mff/lmp_tmp/trj_lammps000001lw_x8xy7 id type x y z vx vy vz fx fy fz
thermo_style custom step temp press cpu pxx pyy pzz pxy pxz pyz ke pe etotal vol lx ly lz atoms
thermo_modify flush yes
thermo 1
run 0
Neighbor list info ...
  update every 1 steps, delay 10 steps, check yes
  max neighbors/atom: 2000, page size: 100000
  master list distance cutoff = 12.2
  ghost atom cutoff = 12.2
  binsize = 6.1, bins = 7 4 4
  1 neighbor lists, perpetual/occasional/extra = 1 0 0
  (1) pair airebo, perpetual
      attributes: full, newton on, ghost
      pair build: full/bin/ghost
      stencil: full/ghost/bin/3d
      bin: standard
Per MPI rank memory allocation (min/avg/max) = 5.143 | 5.143 | 5.143 Mbytes
Step Temp Press CPU Pxx Pyy Pzz Pxy Pxz Pyz KinEng PotEng TotEng Volume Lx Ly Lz Atoms 
       0            0   -21290.577            0   -28563.479   -35308.252            0    -8025.883            0            0            0   -1382.0055   -1382.0055    11271.672      25.5102    22.092481           20      200 
Loop time of 1.017e-06 on 1 procs for 0 steps with 200 atoms

196.7% CPU use with 1 MPI tasks x no OpenMP threads

MPI task timing breakdown:
Section |  min time  |  avg time  |  max time  |%varavg| %total
---------------------------------------------------------------
Pair    | 0          | 0          | 0          |   0.0 |  0.00
Neigh   | 0          | 0          | 0          |   0.0 |  0.00
Comm    | 0          | 0          | 0          |   0.0 |  0.00
Output  | 0          | 0          | 0          |   0.0 |  0.00
Modify  | 0          | 0          | 0          |   0.0 |  0.00
Other   |            | 1.017e-06  |            |       |100.00

Nlocal:    200 ave 200 max 200 min
Histogram: 1 0 0 0 0 0 0 0 0 0
Nghost:    1606 ave 1606 max 1606 min
Histogram: 1 0 0 0 0 0 0 0 0 0
Neighs:    0 ave 0 max 0 min
Histogram: 1 0 0 0 0 0 0 0 0 0
FullNghs:  33380 ave 33380 max 33380 min
Histogram: 1 0 0 0 0 0 0 0 0 0

Total # of neighbors = 33380
Ave neighs/atom = 166.9
Neighbor list builds = 0
Dangerous builds = 0
print "__end_of_ase_invoked_calculation__"
__end_of_ase_invoked_calculation__
