ITEM: TIMESTEP
0
ITEM: NUMBER OF ATOMS
200
ITEM: BOX BOUNDS xy xz yz pp pp pp
-1.2299999999000001e+01 2.4600000000000001e+01 -1.2299999999000001e+01
0.0000000000000000e+00 2.1304224933000000e+01 0.0000000000000000e+00
0.0000000000000000e+00 2.0000000000000000e+01 0.0000000000000000e+00
ITEM: ATOMS id type x y z vx vy vz fx fy fz 
1 1 0 0 0 0 0 0 -5.29824e-08 -4.42986e-09 0 
2 1 0 1.42028 0 0 0 0 -1.56697e-09 7.67218e-09 0 
3 1 23.37 2.13042 0 0 0 0 9.37715e-13 3.16705e-08 0 
4 1 -1.23 3.5507 0 0 0 0 3.40838e-14 -3.167e-08 0 
5 1 -2.46 4.26084 0 0 0 0 1.7808e-13 -7.67078e-09 0 
6 1 -2.46 5.68113 0 0 0 0 -1.84297e-14 4.43206e-09 0 
7 1 20.91 6.39127 0 0 0 0 -1.93623e-13 -4.42903e-09 0 
8 1 -3.69 7.81155 0 0 0 0 -1.75415e-13 4.42661e-09 0 
9 1 19.68 8.52169 0 0 0 0 4.06231e-13 -1.18894e-09 0 
10 1 -4.92 9.94197 0 0 0 0 -4.00568e-13 3.0481e-08 0 
11 1 18.45 10.6521 0 0 0 0 2.91767e-13 -3.04809e-08 0 
12 1 -6.15 12.0724 0 0 0 0 1.03251e-13 1.18865e-09 0 
13 1 17.22 12.7825 0 0 0 0 -3.33955e-13 -4.42644e-09 0 
14 1 -7.38 14.2028 0 0 0 0 -1.9984e-15 4.42898e-09 0 
15 1 15.99 14.913 0 0 0 0 2.62346e-13 -4.43213e-09 0 
16 1 -8.61 16.3332 0 0 0 0 -1.48326e-13 7.67068e-09 0 
17 1 14.76 17.0434 0 0 0 0 -5.67324e-14 3.167e-08 0 
18 1 -9.84 18.4637 0 0 0 0 -9.18599e-13 -3.16704e-08 0 
19 1 13.53 19.1738 0 0 0 0 1.567e-09 -7.6723e-09 0 
20 1 -11.07 20.5941 0 0 0 0 5.29824e-08 4.42986e-09 0 
21 1 2.46 0 0 0 0 0 -5.29824e-08 -4.42983e-09 0 
22 1 2.46 1.42028 0 0 0 0 -1.56701e-09 7.67221e-09 0 
23 1 1.23 2.13042 0 0 0 0 8.64336e-13 3.16706e-08 0 
24 1 1.23 3.5507 0 0 0 0 1.03211e-13 -3.16699e-08 0 
25 1 0 4.26084 0 0 0 0 -5.16687e-14 -7.67087e-09 0 
26 1 0 5.68113 0 0 0 0 -1.19848e-14 4.43206e-09 0 
27 1 -1.23 6.39127 0 0 0 0 9.99201e-16 -4.42893e-09 0 
28 1 -1.23 7.81155 0 0 0 0 -7.73513e-14 4.42657e-09 0 
29 1 -2.46 8.52169 0 0 0 0 1.14686e-13 -1.18895e-09 0 
30 1 -2.46 9.94197 0 0 0 0 -7.3639e-16 3.0481e-08 0 
31 1 -3.69 10.6521 0 0 0 0 9.93927e-14 -3.04808e-08 0 
32 1 -3.69 12.0724 0 0 0 0 -1.46824e-13 1.18873e-09 0 
33 1 -4.92 12.7825 0 0 0 0 1.42081e-13 -4.4265e-09 0 
34 1 -4.92 14.2028 0 0 0 0 -2.24465e-14 4.42891e-09 0 
35 1 -6.15 14.913 0 0 0 0 -5.29576e-14 -4.43207e-09 0 
36 1 -6.15 16.3332 0 0 0 0 -5.12494e-14 7.67076e-09 0 
37 1 -7.38 17.0434 0 0 0 0 1.1896e-13 3.167e-08 0 
38 1 -7.38 18.4637 0 0 0 0 -9.23699e-13 -3.16703e-08 0 
39 1 -8.61 19.1738 0 0 0 0 1.56691e-09 -7.67226e-09 0 
40 1 -8.61 20.5941 0 0 0 0 5.29824e-08 4.4299e-09 0 
41 1 4.92 0 0 0 0 0 -5.29824e-08 -4.42989e-09 0 
42 1 4.92 1.42028 0 0 0 0 -1.56703e-09 7.67209e-09 0 
43 1 3.69 2.13042 0 0 0 0 9.83012e-13 3.16706e-08 0 
44 1 3.69 3.5507 0 0 0 0 -4.32179e-15 -3.167e-08 0 
45 1 2.46 4.26084 0 0 0 0 -7.67966e-14 -7.67084e-09 0 
46 1 2.46 5.68113 0 0 0 0 3.13291e-14 4.432e-09 0 
47 1 1.23 6.39127 0 0 0 0 9.50325e-15 -4.42894e-09 0 
48 1 1.23 7.81155 0 0 0 0 -6.41632e-14 4.42655e-09 0 
49 1 0 8.52169 0 0 0 0 8.07123e-14 -1.18893e-09 0 
50 1 8.88178e-16 9.94197 0 0 0 0 -2.50277e-15 3.0481e-08 0 
51 1 -1.23 10.6521 0 0 0 0 -5.21805e-15 -3.04809e-08 0 
52 1 -1.23 12.0724 0 0 0 0 -1.09445e-13 1.18878e-09 0 
53 1 -2.46 12.7825 0 0 0 0 6.87644e-14 -4.42647e-09 0 
54 1 -2.46 14.2028 0 0 0 0 9.98442e-14 4.42905e-09 0 
55 1 -3.69 14.913 0 0 0 0 3.10949e-15 -4.4321e-09 0 
56 1 -3.69 16.3332 0 0 0 0 8.95035e-14 7.67073e-09 0 
57 1 -4.92 17.0434 0 0 0 0 3.99203e-14 3.167e-08 0 
58 1 -4.92 18.4637 0 0 0 0 -8.91522e-13 -3.16704e-08 0 
59 1 -6.15 19.1738 0 0 0 0 1.56694e-09 -7.67233e-09 0 
60 1 -6.15 20.5941 0 0 0 0 5.29824e-08 4.42986e-09 0 
61 1 7.38 0 0 0 0 0 -5.29824e-08 -4.42986e-09 0 
62 1 7.38 1.42028 0 0 0 0 -1.567e-09 7.67209e-09 0 
63 1 6.15 2.13042 0 0 0 0 8.83538e-13 3.16705e-08 0 
64 1 6.15 3.5507 0 0 0 0 7.8797e-14 -3.16699e-08 0 
65 1 4.92 4.26084 0 0 0 0 -1.16739e-13 -7.67079e-09 0 
66 1 4.92 5.68113 0 0 0 0 1.4856e-13 4.43201e-09 0 
67 1 3.69 6.39127 0 0 0 0 -1.08129e-13 -4.42896e-09 0 
68 1 3.69 7.81155 0 0 0 0 1.76942e-16 4.42656e-09 0 
69 1 2.46 8.52169 0 0 0 0 7.05892e-15 -1.18895e-09 0 
70 1 2.46 9.94197 0 0 0 0 -1.76643e-13 3.0481e-08 0 
71 1 1.23 10.6521 0 0 0 0 7.95812e-14 -3.04809e-08 0 
72 1 1.23 12.0724 0 0 0 0 -1.00367e-13 1.18866e-09 0 
73 1 0 12.7825 0 0 0 0 1.77858e-13 -4.42644e-09 0 
74 1 0 14.2028 0 0 0 0 -3.11374e-14 4.42895e-09 0 
75 1 -1.23 14.913 0 0 0 0 -2.98819e-14 -4.43212e-09 0 
76 1 -1.23 16.3332 0 0 0 0 1.43266e-13 7.67078e-09 0 
77 1 -2.46 17.0434 0 0 0 0 -1.36984e-13 3.16699e-08 0 
78 1 -2.46 18.4637 0 0 0 0 -9.45909e-13 -3.16705e-08 0 
79 1 -3.69 19.1738 0 0 0 0 1.5669e-09 -7.67225e-09 0 
80 1 -3.69 20.5941 0 0 0 0 5.29824e-08 4.42993e-09 0 
81 1 9.84 0 0 0 0 0 -5.29825e-08 -4.42985e-09 0 
82 1 9.84 1.42028 0 0 0 0 -1.56695e-09 7.67226e-09 0 
83 1 8.61 2.13042 0 0 0 0 1.08566e-12 3.16706e-08 0 
84 1 8.61 3.5507 0 0 0 0 1.56975e-13 -3.167e-08 0 
85 1 7.38 4.26084 0 0 0 0 -2.895e-13 -7.67081e-09 0 
86 1 7.38 5.68113 0 0 0 0 7.82032e-14 4.43201e-09 0 
87 1 6.15 6.39127 0 0 0 0 -7.9055e-15 -4.42885e-09 0 
88 1 6.15 7.81155 0 0 0 0 -1.17834e-13 4.42654e-09 0 
89 1 4.92 8.52169 0 0 0 0 6.98658e-14 -1.18895e-09 0 
90 1 4.92 9.94197 0 0 0 0 -3.75209e-14 3.04809e-08 0 
91 1 3.69 10.6521 0 0 0 0 8.41327e-14 -3.04808e-08 0 
92 1 3.69 12.0724 0 0 0 0 -1.3854e-13 1.18881e-09 0 
93 1 2.46 12.7825 0 0 0 0 1.19086e-13 -4.42639e-09 0 
94 1 2.46 14.2028 0 0 0 0 -8.9455e-14 4.42895e-09 0 
95 1 1.23 14.913 0 0 0 0 3.27156e-14 -4.4321e-09 0 
96 1 1.23 16.3332 0 0 0 0 -7.22736e-14 7.6707e-09 0 
97 1 0 17.0434 0 0 0 0 -1.84174e-14 3.167e-08 0 
98 1 0 18.4637 0 0 0 0 -1.09287e-12 -3.16704e-08 0 
99 1 -1.23 19.1738 0 0 0 0 1.56709e-09 -7.67214e-09 0 
100 1 -1.23 20.5941 0 0 0 0 5.29824e-08 4.42989e-09 0 
101 1 12.3 0 0 0 0 0 -5.29824e-08 -4.42988e-09 0 
102 1 12.3 1.42028 0 0 0 0 -1.5668e-09 7.67217e-09 0 
103 1 11.07 2.13042 0 0 0 0 9.33917e-13 3.16705e-08 0 
104 1 11.07 3.5507 0 0 0 0 1.38383e-14 -3.167e-08 0 
105 1 9.84 4.26084 0 0 0 0 -2.22399e-14 -7.67088e-09 0 
106 1 9.84 5.68113 0 0 0 0 1.89747e-14 4.43211e-09 0 
107 1 8.61 6.39127 0 0 0 0 -6.74115e-14 -4.42895e-09 0 
108 1 8.61 7.81155 0 0 0 0 1.15944e-13 4.42657e-09 0 
109 1 7.38 8.52169 0 0 0 0 -9.4312e-14 -1.18891e-09 0 
110 1 7.38 9.94197 0 0 0 0 -1.17294e-13 3.0481e-08 0 
111 1 6.15 10.6521 0 0 0 0 1.84526e-13 -3.04808e-08 0 
112 1 6.15 12.0724 0 0 0 0 -1.36849e-13 1.18877e-09 0 
113 1 4.92 12.7825 0 0 0 0 5.76485e-14 -4.42647e-09 0 
114 1 4.92 14.2028 0 0 0 0 1.6617e-13 4.42899e-09 0 
115 1 3.69 14.913 0 0 0 0 -1.4202e-14 -4.43216e-09 0 
116 1 3.69 16.3332 0 0 0 0 -5.97573e-14 7.67065e-09 0 
117 1 2.46 17.0434 0 0 0 0 1.67463e-13 3.167e-08 0 
118 1 2.46 18.4637 0 0 0 0 -9.31193e-13 -3.16704e-08 0 
119 1 1.23 19.1738 0 0 0 0 1.56711e-09 -7.67224e-09 0 
120 1 1.23 20.5941 0 0 0 0 5.29824e-08 4.42986e-09 0 
121 1 14.76 0 0 0 0 0 -5.29825e-08 -4.42983e-09 0 
122 1 14.76 1.42028 0 0 0 0 -1.56672e-09 7.6721e-09 0 
123 1 13.53 2.13042 0 0 0 0 6.76215e-13 3.16706e-08 0 
124 1 13.53 3.5507 0 0 0 0 1.22385e-14 -3.16701e-08 0 
125 1 12.3 4.26084 0 0 0 0 -1.70851e-13 -7.67082e-09 0 
126 1 12.3 5.68113 0 0 0 0 -1.4895e-13 4.43202e-09 0 
127 1 11.07 6.39127 0 0 0 0 -1.63249e-13 -4.42902e-09 0 
128 1 11.07 7.81155 0 0 0 0 6.78614e-14 4.42648e-09 0 
129 1 9.84 8.52169 0 0 0 0 -2.82967e-14 -1.18889e-09 0 
130 1 9.84 9.94197 0 0 0 0 -2.16489e-13 3.0481e-08 0 
131 1 8.61 10.6521 0 0 0 0 1.84266e-13 -3.04809e-08 0 
132 1 8.61 12.0724 0 0 0 0 -1.08209e-13 1.18878e-09 0 
133 1 7.38 12.7825 0 0 0 0 5.31461e-14 -4.42643e-09 0 
134 1 7.38 14.2028 0 0 0 0 2.13843e-13 4.4289e-09 0 
135 1 6.15 14.913 0 0 0 0 -1.58426e-13 -4.43204e-09 0 
136 1 6.15 16.3332 0 0 0 0 1.19909e-13 7.6707e-09 0 
137 1 4.92 17.0434 0 0 0 0 -1.24321e-14 3.16701e-08 0 
138 1 4.92 18.4637 0 0 0 0 -7.7512e-13 -3.16704e-08 0 
139 1 3.69 19.1738 0 0 0 0 1.56669e-09 -7.67227e-09 0 
140 1 3.69 20.5941 0 0 0 0 5.29825e-08 4.42989e-09 0 
141 1 17.22 0 0 0 0 0 -5.29823e-08 -4.42991e-09 0 
142 1 17.22 1.42028 0 0 0 0 -1.56675e-09 7.67212e-09 0 
143 1 15.99 2.13042 0 0 0 0 6.0549e-13 3.16706e-08 0 
144 1 15.99 3.5507 0 0 0 0 -1.07392e-13 -3.167e-08 0 
145 1 14.76 4.26084 0 0 0 0 7.67577e-14 -7.67081e-09 0 
146 1 14.76 5.68113 0 0 0 0 3.86807e-13 4.43209e-09 0 
147 1 13.53 6.39127 0 0 0 0 1.0112e-13 -4.42881e-09 0 
148 1 13.53 7.81155 0 0 0 0 -4.33755e-13 4.42658e-09 0 
149 1 12.3 8.52169 0 0 0 0 7.3639e-14 -1.189e-09 0 
150 1 12.3 9.94197 0 0 0 0 8.79999e-14 3.04809e-08 0 
151 1 11.07 10.6521 0 0 0 0 8.35172e-14 -3.04808e-08 0 
152 1 11.07 12.0724 0 0 0 0 -2.13066e-13 1.18879e-09 0 
153 1 9.84 12.7825 0 0 0 0 2.26981e-13 -4.42654e-09 0 
154 1 9.84 14.2028 0 0 0 0 -2.36719e-13 4.42889e-09 0 
155 1 8.61 14.913 0 0 0 0 -2.99736e-15 -4.43213e-09 0 
156 1 8.61 16.3332 0 0 0 0 -7.48696e-14 7.67073e-09 0 
157 1 7.38 17.0434 0 0 0 0 2.56753e-14 3.16699e-08 0 
158 1 7.38 18.4637 0 0 0 0 -8.76567e-13 -3.16704e-08 0 
159 1 6.15 19.1738 0 0 0 0 1.56679e-09 -7.67221e-09 0 
160 1 6.15 20.5941 0 0 0 0 5.29824e-08 4.42992e-09 0 
161 1 19.68 0 0 0 0 0 -5.29824e-08 -4.42988e-09 0 
162 1 19.68 1.42028 0 0 0 0 -1.56693e-09 7.67231e-09 0 
163 1 18.45 2.13042 0 0 0 0 9.25633e-13 3.16704e-08 0 
164 1 18.45 3.5507 0 0 0 0 -3.21586e-13 -3.16699e-08 0 
165 1 17.22 4.26084 0 0 0 0 2.46156e-13 -7.67086e-09 0 
166 1 17.22 5.68113 0 0 0 0 9.11684e-14 4.43198e-09 0 
167 1 15.99 6.39127 0 0 0 0 -2.60987e-13 -4.42896e-09 0 
168 1 15.99 7.81155 0 0 0 0 -2.73388e-13 4.42661e-09 0 
169 1 14.76 8.52169 0 0 0 0 4.09225e-13 -1.18886e-09 0 
170 1 14.76 9.94197 0 0 0 0 1.08056e-14 3.04811e-08 0 
171 1 13.53 10.6521 0 0 0 0 1.83754e-13 -3.04809e-08 0 
172 1 13.53 12.0724 0 0 0 0 -8.12198e-15 1.1888e-09 0 
173 1 12.3 12.7825 0 0 0 0 9.12931e-15 -4.42643e-09 0 
174 1 12.3 14.2028 0 0 0 0 8.968e-14 4.42896e-09 0 
175 1 11.07 14.913 0 0 0 0 2.62643e-13 -4.43207e-09 0 
176 1 11.07 16.3332 0 0 0 0 -1.95145e-13 7.67063e-09 0 
177 1 9.84 17.0434 0 0 0 0 1.44706e-13 3.167e-08 0 
178 1 9.84 18.4637 0 0 0 0 -8.80476e-13 -3.16704e-08 0 
179 1 8.61 19.1738 0 0 0 0 1.56681e-09 -7.67224e-09 0 
180 1 8.61 20.5941 0 0 0 0 5.29826e-08 4.42999e-09 0 
181 1 22.14 0 0 0 0 0 -5.29824e-08 -4.42998e-09 0 
182 1 22.14 1.42028 0 0 0 0 -1.56695e-09 7.67222e-09 0 
183 1 20.91 2.13042 0 0 0 0 9.95982e-13 3.16704e-08 0 
184 1 20.91 3.5507 0 0 0 0 -2.69608e-13 -3.167e-08 0 
185 1 19.68 4.26084 0 0 0 0 1.33114e-13 -7.67074e-09 0 
186 1 19.68 5.68113 0 0 0 0 3.54661e-13 4.43205e-09 0 
187 1 18.45 6.39127 0 0 0 0 -2.9499e-15 -4.42897e-09 0 
188 1 18.45 7.81155 0 0 0 0 -5.76705e-13 4.42662e-09 0 
189 1 17.22 8.52169 0 0 0 0 3.28817e-13 -1.18902e-09 0 
190 1 17.22 9.94197 0 0 0 0 7.04992e-14 3.04809e-08 0 
191 1 15.99 10.6521 0 0 0 0 -2.0207e-13 -3.04809e-08 0 
192 1 15.99 12.0724 0 0 0 0 2.10387e-14 1.18879e-09 0 
193 1 14.76 12.7825 0 0 0 0 1.12505e-14 -4.42646e-09 0 
194 1 14.76 14.2028 0 0 0 0 -1.36724e-13 4.42896e-09 0 
195 1 13.53 14.913 0 0 0 0 -8.10723e-15 -4.43217e-09 0 
196 1 13.53 16.3332 0 0 0 0 3.18079e-14 7.67078e-09 0 
197 1 12.3 17.0434 0 0 0 0 1.63247e-13 3.167e-08 0 
198 1 12.3 18.4637 0 0 0 0 -8.77631e-13 -3.16704e-08 0 
199 1 11.07 19.1738 0 0 0 0 1.56685e-09 -7.67228e-09 0 
200 1 11.07 20.5941 0 0 0 0 5.29823e-08 4.42993e-09 0 
