ITEM: TIMESTEP
0
ITEM: NUMBER OF ATOMS
200
ITEM: BOX BOUNDS xy xz yz pp pp pp
-1.2755099999000000e+01 2.5510200000000001e+01 -1.2755099999000000e+01
0.0000000000000000e+00 2.2092481254999999e+01 0.0000000000000000e+00
0.0000000000000000e+00 2.0000000000000000e+01 0.0000000000000000e+00
ITEM: ATOMS id type x y z vx vy vz fx fy fz 
1 1 0 0 0 0 0 0 0.0211984 2.88286 0 
2 1 -1.11022e-16 1.42028 0 0 0 0 0.146984 -3.14368 0 
3 1 24.2802 2.13042 0 0 0 0 1.79127 1.02469 0 
4 1 -1.23 3.5507 0 0 0 0 -0.889101 -0.523683 0 
5 1 -2.46 4.26084 0 0 0 0 1.78839 1.01237 0 
6 1 -2.46 5.68113 0 0 0 0 -0.889156 -0.52598 0 
7 1 21.8202 6.39127 0 0 0 0 1.78831 1.01096 0 
8 1 -3.69 7.81155 0 0 0 0 -0.889175 -0.526342 0 
9 1 20.5902 8.52169 0 0 0 0 1.7883 1.01077 0 
10 1 -4.92 9.94197 0 0 0 0 -0.889178 -0.526414 0 
11 1 19.3602 10.6521 0 0 0 0 1.7883 1.01074 0 
12 1 -6.15 12.0724 0 0 0 0 -0.889178 -0.52645 0 
13 1 18.1302 12.7825 0 0 0 0 1.7883 1.01066 0 
14 1 -7.38 14.2028 0 0 0 0 -0.889178 -0.526662 0 
15 1 16.9002 14.913 0 0 0 0 1.78829 1.01027 0 
16 1 -8.61 16.3332 0 0 0 0 -0.889192 -0.528222 0 
17 1 15.6702 17.0434 0 0 0 0 1.78822 1.00758 0 
18 1 -9.84 18.4637 0 0 0 0 -0.890177 -0.529111 0 
19 1 14.4402 19.1738 0 0 0 0 1.51896 3.03182 0 
20 1 -11.07 20.5941 0 0 0 0 2.18215 2.44976 0 
21 1 2.46 0 0 0 0 0 -3.22668 -3.48588 0 
22 1 2.46 1.42028 0 0 0 0 0.259696 -0.210782 0 
23 1 1.23 2.13042 0 0 0 0 0.00131124 0.00258691 0 
24 1 1.23 3.5507 0 0 0 0 0.00324075 0.00484392 0 
25 1 0 4.26084 0 0 0 0 0.000380302 0.00170282 0 
26 1 8.88178e-16 5.68113 0 0 0 0 0.00345541 0.00239884 0 
27 1 -1.23 6.39127 0 0 0 0 0.000432004 0.00040701 0 
28 1 -1.23 7.81155 0 0 0 0 0.00345833 0.00205168 0 
29 1 -2.46 8.52169 0 0 0 0 0.000428552 0.000220529 0 
30 1 -2.46 9.94197 0 0 0 0 0.00345777 0.00198428 0 
31 1 -3.69 10.6521 0 0 0 0 0.000427643 0.000189845 0 
32 1 -3.69 12.0724 0 0 0 0 0.00345784 0.00194847 0 
33 1 -4.92 12.7825 0 0 0 0 0.00042727 0.000110065 0 
34 1 -4.92 14.2028 0 0 0 0 0.00345704 0.0017366 0 
35 1 -6.15 14.913 0 0 0 0 0.000428382 -0.000285838 0 
36 1 -6.15 16.3332 0 0 0 0 0.00346052 0.000159397 0 
37 1 -7.38 17.0434 0 0 0 0 0.000415673 -0.00303984 0 
38 1 -7.38 18.4637 0 0 0 0 0.00269023 -0.000874149 0 
39 1 -8.61 19.1738 0 0 0 0 -0.25569 0.212693 0 
40 1 -8.61 20.5941 0 0 0 0 3.2208 3.48388 0 
41 1 4.92 0 0 0 0 0 -3.2167 -3.4813 0 
42 1 4.92 1.42028 0 0 0 0 0.256394 -0.212195 0 
43 1 3.69 2.13042 0 0 0 0 0.00153122 0.00334577 0 
44 1 3.69 3.5507 0 0 0 0 0.000395422 0.00347423 0 
45 1 2.46 4.26084 0 0 0 0 0.000881347 0.00229572 0 
46 1 2.46 5.68113 0 0 0 0 0.000444621 0.000718928 0 
47 1 1.23 6.39127 0 0 0 0 0.000936699 0.000763354 0 
48 1 1.23 7.81155 0 0 0 0 0.000452924 0.000332049 0 
49 1 8.88178e-16 8.52169 0 0 0 0 0.000941342 0.000567564 0 
50 1 8.88178e-16 9.94197 0 0 0 0 0.000455466 0.00026173 0 
51 1 -1.23 10.6521 0 0 0 0 0.000941993 0.000537642 0 
52 1 -1.23 12.0724 0 0 0 0 0.000455533 0.00022592 0 
53 1 -2.46 12.7825 0 0 0 0 0.00094162 0.000457863 0 
54 1 -2.46 14.2028 0 0 0 0 0.00045474 1.40433e-05 0 
55 1 -3.69 14.913 0 0 0 0 0.000942732 6.19593e-05 0 
56 1 -3.69 16.3332 0 0 0 0 0.000461147 -0.00156485 0 
57 1 -4.92 17.0434 0 0 0 0 0.000952141 -0.00270701 0 
58 1 -4.92 18.4637 0 0 0 0 -0.000286117 -0.00260836 0 
59 1 -6.15 19.1738 0 0 0 0 -0.255073 0.212999 0 
60 1 -6.15 20.5941 0 0 0 0 3.218 3.48212 0 
61 1 7.38 0 0 0 0 0 -3.21741 -3.48176 0 
62 1 7.38 1.42028 0 0 0 0 0.256075 -0.212402 0 
63 1 6.15 2.13042 0 0 0 0 0.000889348 0.00296004 0 
64 1 6.15 3.5507 0 0 0 0 7.19009e-05 0.00329165 0 
65 1 4.92 4.26084 0 0 0 0 0.000147061 0.0019105 0 
66 1 4.92 5.68113 0 0 0 0 8.74426e-05 0.00052216 0 
67 1 3.69 6.39127 0 0 0 0 0.000163856 0.000334984 0 
68 1 3.69 7.81155 0 0 0 0 9.4894e-05 0.000131856 0 
69 1 2.46 8.52169 0 0 0 0 0.000169673 0.000132607 0 
70 1 2.46 9.94197 0 0 0 0 9.70131e-05 5.63948e-05 0 
71 1 1.23 10.6521 0 0 0 0 0.000170998 9.99436e-05 0 
72 1 1.23 12.0724 0 0 0 0 9.70806e-05 2.05846e-05 0 
73 1 3.55271e-15 12.7825 0 0 0 0 0.000170624 2.01641e-05 0 
74 1 1.77636e-15 14.2028 0 0 0 0 9.62873e-05 -0.000191292 0 
75 1 -1.23 14.913 0 0 0 0 0.000171736 -0.000375739 0 
76 1 -1.23 16.3332 0 0 0 0 0.000102695 -0.00177018 0 
77 1 -2.46 17.0434 0 0 0 0 0.000181146 -0.0031447 0 
78 1 -2.46 18.4637 0 0 0 0 -0.000644569 -0.0028137 0 
79 1 -3.69 19.1738 0 0 0 0 -0.255819 0.212554 0 
80 1 -3.69 20.5941 0 0 0 0 3.21766 3.48191 0 
81 1 9.84 0 0 0 0 0 -3.21756 -3.48185 0 
82 1 9.84 1.42028 0 0 0 0 0.25599 -0.212454 0 
83 1 8.61 2.13042 0 0 0 0 0.000745441 0.00287228 0 
84 1 8.61 3.5507 0 0 0 0 -1.01481e-05 0.00324468 0 
85 1 7.38 4.26084 0 0 0 0 -3.41003e-06 0.00182815 0 
86 1 7.38 5.68113 0 0 0 0 -7.38767e-07 0.000475714 0 
87 1 6.15 6.39127 0 0 0 0 3.66043e-06 0.000249351 0 
88 1 6.15 7.81155 0 0 0 0 3.73798e-07 7.98101e-05 0 
89 1 4.92 8.52169 0 0 0 0 2.86719e-06 3.74741e-05 0 
90 1 4.92 9.94197 0 0 0 0 1.61298e-13 3.04808e-08 0 
91 1 3.69 10.6521 0 0 0 0 2.9346e-06 1.66381e-06 0 
92 1 3.69 12.0724 0 0 0 0 6.74108e-08 -3.57798e-05 0 
93 1 2.46 12.7825 0 0 0 0 2.5608e-06 -7.81158e-05 0 
94 1 2.46 14.2028 0 0 0 0 -7.25829e-07 -0.000247656 0 
95 1 1.23 14.913 0 0 0 0 3.67337e-06 -0.000474019 0 
96 1 1.23 16.3332 0 0 0 0 5.68189e-06 -0.00182655 0 
97 1 1.77636e-15 17.0434 0 0 0 0 1.30827e-05 -0.00324298 0 
98 1 1.77636e-15 18.4637 0 0 0 0 -0.000741582 -0.00287006 0 
99 1 -1.23 19.1738 0 0 0 0 -0.255987 0.212456 0 
100 1 -1.23 20.5941 0 0 0 0 3.21757 3.48185 0 
101 1 12.3 0 0 0 0 0 -3.21757 -3.48185 0 
102 1 12.3 1.42028 0 0 0 0 0.255987 -0.212456 0 
103 1 11.07 2.13042 0 0 0 0 0.000741582 0.00287006 0 
104 1 11.07 3.5507 0 0 0 0 -1.30827e-05 0.00324298 0 
105 1 9.84 4.26084 0 0 0 0 -5.68189e-06 0.00182655 0 
106 1 9.84 5.68113 0 0 0 0 -3.67337e-06 0.000474019 0 
107 1 8.61 6.39127 0 0 0 0 7.25829e-07 0.000247656 0 
108 1 8.61 7.81155 0 0 0 0 -2.5608e-06 7.81158e-05 0 
109 1 7.38 8.52169 0 0 0 0 -6.74106e-08 3.57798e-05 0 
110 1 7.38 9.94197 0 0 0 0 -2.9346e-06 -1.66381e-06 0 
111 1 6.15 10.6521 0 0 0 0 -2.34249e-13 -3.04809e-08 0 
112 1 6.15 12.0724 0 0 0 0 -2.86719e-06 -3.74741e-05 0 
113 1 4.92 12.7825 0 0 0 0 -3.73798e-07 -7.98101e-05 0 
114 1 4.92 14.2028 0 0 0 0 -3.66043e-06 -0.000249351 0 
115 1 3.69 14.913 0 0 0 0 7.38767e-07 -0.000475714 0 
116 1 3.69 16.3332 0 0 0 0 3.41003e-06 -0.00182815 0 
117 1 2.46 17.0434 0 0 0 0 1.01481e-05 -0.00324468 0 
118 1 2.46 18.4637 0 0 0 0 -0.000745441 -0.00287228 0 
119 1 1.23 19.1738 0 0 0 0 -0.25599 0.212454 0 
120 1 1.23 20.5941 0 0 0 0 3.21756 3.48185 0 
121 1 14.76 0 0 0 0 0 -3.21766 -3.48191 0 
122 1 14.76 1.42028 0 0 0 0 0.255819 -0.212554 0 
123 1 13.53 2.13042 0 0 0 0 0.000644569 0.0028137 0 
124 1 13.53 3.5507 0 0 0 0 -0.000181146 0.0031447 0 
125 1 12.3 4.26084 0 0 0 0 -0.000102695 0.00177018 0 
126 1 12.3 5.68113 0 0 0 0 -0.000171736 0.000375739 0 
127 1 11.07 6.39127 0 0 0 0 -9.62873e-05 0.000191292 0 
128 1 11.07 7.81155 0 0 0 0 -0.000170624 -2.01641e-05 0 
129 1 9.84 8.52169 0 0 0 0 -9.70806e-05 -2.05846e-05 0 
130 1 9.84 9.94197 0 0 0 0 -0.000170998 -9.99436e-05 0 
131 1 8.61 10.6521 0 0 0 0 -9.70131e-05 -5.63948e-05 0 
132 1 8.61 12.0724 0 0 0 0 -0.000169673 -0.000132607 0 
133 1 7.38 12.7825 0 0 0 0 -9.4894e-05 -0.000131856 0 
134 1 7.38 14.2028 0 0 0 0 -0.000163856 -0.000334984 0 
135 1 6.15 14.913 0 0 0 0 -8.74426e-05 -0.00052216 0 
136 1 6.15 16.3332 0 0 0 0 -0.000147061 -0.0019105 0 
137 1 4.92 17.0434 0 0 0 0 -7.19009e-05 -0.00329165 0 
138 1 4.92 18.4637 0 0 0 0 -0.000889348 -0.00296004 0 
139 1 3.69 19.1738 0 0 0 0 -0.256075 0.212402 0 
140 1 3.69 20.5941 0 0 0 0 3.21741 3.48176 0 
141 1 17.22 0 0 0 0 0 -3.218 -3.48212 0 
142 1 17.22 1.42028 0 0 0 0 0.255073 -0.212999 0 
143 1 15.99 2.13042 0 0 0 0 0.000286117 0.00260836 0 
144 1 15.99 3.5507 0 0 0 0 -0.000952141 0.00270701 0 
145 1 14.76 4.26084 0 0 0 0 -0.000461147 0.00156485 0 
146 1 14.76 5.68113 0 0 0 0 -0.000942732 -6.19593e-05 0 
147 1 13.53 6.39127 0 0 0 0 -0.00045474 -1.40433e-05 0 
148 1 13.53 7.81155 0 0 0 0 -0.00094162 -0.000457863 0 
149 1 12.3 8.52169 0 0 0 0 -0.000455533 -0.00022592 0 
150 1 12.3 9.94197 0 0 0 0 -0.000941993 -0.000537642 0 
151 1 11.07 10.6521 0 0 0 0 -0.000455466 -0.00026173 0 
152 1 11.07 12.0724 0 0 0 0 -0.000941342 -0.000567564 0 
153 1 9.84 12.7825 0 0 0 0 -0.000452924 -0.000332049 0 
154 1 9.84 14.2028 0 0 0 0 -0.000936699 -0.000763354 0 
155 1 8.61 14.913 0 0 0 0 -0.000444621 -0.000718928 0 
156 1 8.61 16.3332 0 0 0 0 -0.000881347 -0.00229572 0 
157 1 7.38 17.0434 0 0 0 0 -0.000395422 -0.00347423 0 
158 1 7.38 18.4637 0 0 0 0 -0.00153122 -0.00334577 0 
159 1 6.15 19.1738 0 0 0 0 -0.256394 0.212195 0 
160 1 6.15 20.5941 0 0 0 0 3.2167 3.4813 0 
161 1 19.68 0 0 0 0 0 -3.2208 -3.48388 0 
162 1 19.68 1.42028 0 0 0 0 0.25569 -0.212693 0 
163 1 18.45 2.13042 0 0 0 0 -0.00269023 0.000874149 0 
164 1 18.45 3.5507 0 0 0 0 -0.000415673 0.00303984 0 
165 1 17.22 4.26084 0 0 0 0 -0.00346052 -0.000159397 0 
166 1 17.22 5.68113 0 0 0 0 -0.000428382 0.000285838 0 
167 1 15.99 6.39127 0 0 0 0 -0.00345704 -0.0017366 0 
168 1 15.99 7.81155 0 0 0 0 -0.00042727 -0.000110065 0 
169 1 14.76 8.52169 0 0 0 0 -0.00345784 -0.00194847 0 
170 1 14.76 9.94197 0 0 0 0 -0.000427643 -0.000189845 0 
171 1 13.53 10.6521 0 0 0 0 -0.00345777 -0.00198428 0 
172 1 13.53 12.0724 0 0 0 0 -0.000428552 -0.000220529 0 
173 1 12.3 12.7825 0 0 0 0 -0.00345833 -0.00205168 0 
174 1 12.3 14.2028 0 0 0 0 -0.000432004 -0.00040701 0 
175 1 11.07 14.913 0 0 0 0 -0.00345541 -0.00239884 0 
176 1 11.07 16.3332 0 0 0 0 -0.000380302 -0.00170282 0 
177 1 9.84 17.0434 0 0 0 0 -0.00324075 -0.00484392 0 
178 1 9.84 18.4637 0 0 0 0 -0.00131124 -0.00258691 0 
179 1 8.61 19.1738 0 0 0 0 -0.259696 0.210782 0 
180 1 8.61 20.5941 0 0 0 0 3.22668 3.48588 0 
181 1 22.14 0 0 0 0 0 -2.18215 -2.44976 0 
182 1 22.14 1.42028 0 0 0 0 -1.51896 -3.03182 0 
183 1 20.91 2.13042 0 0 0 0 0.890177 0.529111 0 
184 1 20.91 3.5507 0 0 0 0 -1.78822 -1.00758 0 
185 1 19.68 4.26084 0 0 0 0 0.889192 0.528222 0 
186 1 19.68 5.68113 0 0 0 0 -1.78829 -1.01027 0 
187 1 18.45 6.39127 0 0 0 0 0.889178 0.526662 0 
188 1 18.45 7.81155 0 0 0 0 -1.7883 -1.01066 0 
189 1 17.22 8.52169 0 0 0 0 0.889178 0.52645 0 
190 1 17.22 9.94197 0 0 0 0 -1.7883 -1.01074 0 
191 1 15.99 10.6521 0 0 0 0 0.889178 0.526414 0 
192 1 15.99 12.0724 0 0 0 0 -1.7883 -1.01077 0 
193 1 14.76 12.7825 0 0 0 0 0.889175 0.526342 0 
194 1 14.76 14.2028 0 0 0 0 -1.78831 -1.01096 0 
195 1 13.53 14.913 0 0 0 0 0.889156 0.52598 0 
196 1 13.53 16.3332 0 0 0 0 -1.78839 -1.01237 0 
197 1 12.3 17.0434 0 0 0 0 0.889101 0.523683 0 
198 1 12.3 18.4637 0 0 0 0 -1.79127 -1.02469 0 
199 1 11.07 19.1738 0 0 0 0 -0.146984 3.14368 0 
200 1 11.07 20.5941 0 0 0 0 -0.0211984 -2.88286 0 
