
     Program PWSCF v.6.1 (svn rev. 13369) starts on 18Sep2018 at 21:39:19 

     This program is part of the open-source Quantum ESPRESSO suite
     for quantum simulation of materials; please cite
         "P. Giannozzi et al., J. Phys.:Condens. Matter 21 395502 (2009);
          URL http://www.quantum-espresso.org", 
     in publications or presentations arising from this work. More details at
     http://www.quantum-espresso.org/quote

     Parallel version (MPI), running on    16 processors
     R & G space division:  proc/nbgrp/npool/nimage =      16
     Waiting for input...
     Reading input from standard input
Warning: card &IONS ignored
Warning: card  / ignored

     Current dimensions of program PWSCF are:
     Max number of different atomic species (ntypx) = 10
     Max number of k-points (npk) =  40000
     Max angular momentum in pseudopotentials (lmaxx) =  3

     Subspace diagonalization in iterative solution of the eigenvalue problem:
     a serial algorithm will be used


     Parallelization info
     --------------------
     sticks:   dense  smooth     PW     G-vecs:    dense   smooth      PW
     Min         180     180     49                 7264     7264    1051
     Max         181     181     50                 7266     7266    1054
     Sum        2885    2885    793               116249   116249   16831



     bravais-lattice index     =            0
     lattice parameter (alat)  =      15.0352  a.u.
     unit-cell volume          =    3398.8476 (a.u.)^3
     number of atoms/cell      =           31
     number of atomic types    =            1
     number of electrons       =        93.00
     number of Kohn-Sham states=           56
     kinetic-energy cutoff     =      40.0000  Ry
     charge density cutoff     =     160.0000  Ry
     convergence threshold     =      1.0E-07
     mixing beta               =       0.5000
     number of iterations used =            8  plain     mixing
     Exchange-correlation      =  SLA  PZ   NOGX NOGC ( 1  1  0  0 0 0)

     celldm(1)=  15.035247  celldm(2)=   0.000000  celldm(3)=   0.000000
     celldm(4)=   0.000000  celldm(5)=   0.000000  celldm(6)=   0.000000

     crystal axes: (cart. coord. in units of alat)
               a(1) = (   1.000000   0.000000   0.000000 )  
               a(2) = (   0.000000   1.000000   0.000000 )  
               a(3) = (   0.000000   0.000000   1.000000 )  

     reciprocal axes: (cart. coord. in units 2 pi/alat)
               b(1) = (  1.000000  0.000000  0.000000 )  
               b(2) = (  0.000000  1.000000  0.000000 )  
               b(3) = (  0.000000  0.000000  1.000000 )  


     PseudoPot. # 1 for Al read from file:
     /home/homesoftware/espresso-6.1/qe-6.1/pseudo/Al.pz-vbc.UPF
     MD5 check sum: 614279c88ff8d45c90147292d03ed420
     Pseudo is Norm-conserving, Zval =  3.0
     Generated by new atomic code, or converted to UPF format
     Using radial grid of  171 points,  2 beta functions with: 
                l(1) =   0
                l(2) =   1

     atomic species   valence    mass     pseudopotential
        Al             3.00    26.98154     Al( 1.00)

     No symmetry found



   Cartesian axes

     site n.     atom                  positions (alat units)
         1           Al  tau(   1) = (  -0.0218405  -0.0125661   0.0156090  )
         2           Al  tau(   2) = (   0.0160200   0.2710980   0.2677711  )
         3           Al  tau(   3) = (   0.2611550  -0.0009049   0.2395545  )
         4           Al  tau(   4) = (   0.2606095   0.2366574  -0.0014542  )
         5           Al  tau(   5) = (  -0.0013310  -0.0140857   0.4850817  )
         6           Al  tau(   6) = (   0.0226864   0.2376252   0.7553816  )
         7           Al  tau(   7) = (   0.2390178  -0.0137162   0.7775476  )
         8           Al  tau(   8) = (   0.2404079   0.2349996   0.4997719  )
         9           Al  tau(   9) = (  -0.0172379   0.4891929   0.0248872  )
        10           Al  tau(  10) = (   0.0143484   0.7273862   0.2419400  )
        11           Al  tau(  11) = (   0.2410213   0.5206999   0.2648627  )
        12           Al  tau(  12) = (   0.2443922   0.7498212   0.0176099  )
        13           Al  tau(  13) = (  -0.0059915   0.4805858   0.5012726  )
        14           Al  tau(  14) = (   0.0213679   0.7548110   0.7535440  )
        15           Al  tau(  15) = (   0.2660429   0.4765739   0.7335964  )
        16           Al  tau(  16) = (   0.2727910   0.7458948   0.4889415  )
        17           Al  tau(  17) = (   0.4808184   0.2473471   0.2603418  )
        18           Al  tau(  18) = (   0.7385006  -0.0212511   0.2219371  )
        19           Al  tau(  19) = (   0.7288014   0.2311788   0.0060066  )
        20           Al  tau(  20) = (   0.5124008  -0.0230157   0.4831561  )
        21           Al  tau(  21) = (   0.5198943   0.2626079   0.7379175  )
        22           Al  tau(  22) = (   0.7218246   0.0164322   0.7749195  )
        23           Al  tau(  23) = (   0.7580826   0.2413342   0.5087006  )
        24           Al  tau(  24) = (   0.5221767   0.4994778  -0.0170695  )
        25           Al  tau(  25) = (   0.4846040   0.7522696   0.2605630  )
        26           Al  tau(  26) = (   0.7282899   0.5219153   0.2535233  )
        27           Al  tau(  27) = (   0.7263631   0.7704049  -0.0218104  )
        28           Al  tau(  28) = (   0.5170965   0.5073596   0.5160822  )
        29           Al  tau(  29) = (   0.4756966   0.7389192   0.7630283  )
        30           Al  tau(  30) = (   0.7679867   0.5080182   0.7375542  )
        31           Al  tau(  31) = (   0.7535365   0.7403796   0.5131738  )

     number of k points=   172  Methfessel-Paxton smearing, width (Ry)=  0.0200

     Number of k-points >= 100: set verbosity='high' to print them.

     Dense  grid:   116249 G-vectors     FFT dimensions: (  64,  64,  64)

     Estimated max dynamical RAM per process >      11.26MB

     Estimated total allocated dynamical RAM >     180.22MB

     Initial potential from superposition of free atoms

     starting charge   92.93624, renormalised to   93.00000

     negative rho (up, down):  6.560E-05 0.000E+00
     Starting wfc are  124 randomized atomic wfcs

     total cpu time spent up to now is      310.0 secs

     per-process dynamical memory:    37.5 Mb

     Self-consistent Calculation

     iteration #  1     ecut=    40.00 Ry     beta=0.50
     Davidson diagonalization with overlap
     ethr =  1.00E-02,  avg # of iterations =  3.8

     Threshold (ethr) on eigenvalues was too large:
     Diagonalizing with lowered threshold

     Davidson diagonalization with overlap
     ethr =  4.55E-04,  avg # of iterations =  3.4

     negative rho (up, down):  2.169E-05 0.000E+00

     total cpu time spent up to now is      924.0 secs

     total energy              =    -129.51389437 Ry
     Harris-Foulkes estimate   =    -129.70738503 Ry
     estimated scf accuracy    <       0.46622879 Ry

     iteration #  2     ecut=    40.00 Ry     beta=0.50
     Davidson diagonalization with overlap
     ethr =  5.01E-04,  avg # of iterations =  3.4

     negative rho (up, down):  1.398E-05 0.000E+00

     total cpu time spent up to now is     1256.1 secs

     total energy              =    -129.47615757 Ry
     Harris-Foulkes estimate   =    -129.72135287 Ry
     estimated scf accuracy    <       0.73769032 Ry

     iteration #  3     ecut=    40.00 Ry     beta=0.50
     Davidson diagonalization with overlap
     ethr =  5.01E-04,  avg # of iterations =  2.8

     negative rho (up, down):  4.003E-06 0.000E+00

     total cpu time spent up to now is     1542.4 secs

     total energy              =    -129.59003287 Ry
     Harris-Foulkes estimate   =    -129.65021577 Ry
     estimated scf accuracy    <       0.23758521 Ry

     iteration #  4     ecut=    40.00 Ry     beta=0.50
     Davidson diagonalization with overlap
     ethr =  2.55E-04,  avg # of iterations =  2.0

     total cpu time spent up to now is     1737.6 secs

     total energy              =    -129.61870480 Ry
     Harris-Foulkes estimate   =    -129.62772254 Ry
     estimated scf accuracy    <       0.03201282 Ry

     iteration #  5     ecut=    40.00 Ry     beta=0.50
     Davidson diagonalization with overlap
     ethr =  3.44E-05,  avg # of iterations =  2.8

     total cpu time spent up to now is     2025.4 secs

     total energy              =    -129.62250592 Ry
     Harris-Foulkes estimate   =    -129.62472262 Ry
     estimated scf accuracy    <       0.00604193 Ry

     iteration #  6     ecut=    40.00 Ry     beta=0.50
     Davidson diagonalization with overlap
     ethr =  6.50E-06,  avg # of iterations =  4.2

     total cpu time spent up to now is     2442.3 secs

     total energy              =    -129.62336835 Ry
     Harris-Foulkes estimate   =    -129.62470956 Ry
     estimated scf accuracy    <       0.00524106 Ry

     iteration #  7     ecut=    40.00 Ry     beta=0.50
     Davidson diagonalization with overlap
     ethr =  5.64E-06,  avg # of iterations =  2.0

     total cpu time spent up to now is     2638.5 secs

     total energy              =    -129.62403513 Ry
     Harris-Foulkes estimate   =    -129.62406119 Ry
     estimated scf accuracy    <       0.00008220 Ry

     iteration #  8     ecut=    40.00 Ry     beta=0.50
     Davidson diagonalization with overlap
     ethr =  8.84E-08,  avg # of iterations =  3.1

     total cpu time spent up to now is     2924.1 secs

     total energy              =    -129.62405623 Ry
     Harris-Foulkes estimate   =    -129.62406600 Ry
     estimated scf accuracy    <       0.00003024 Ry

     iteration #  9     ecut=    40.00 Ry     beta=0.50
     Davidson diagonalization with overlap
     ethr =  3.25E-08,  avg # of iterations =  2.3

     total cpu time spent up to now is     3139.9 secs

     total energy              =    -129.62406052 Ry
     Harris-Foulkes estimate   =    -129.62406333 Ry
     estimated scf accuracy    <       0.00001092 Ry

     iteration # 10     ecut=    40.00 Ry     beta=0.50
     Davidson diagonalization with overlap
     ethr =  1.17E-08,  avg # of iterations =  2.1

     total cpu time spent up to now is     3344.2 secs

     total energy              =    -129.62406195 Ry
     Harris-Foulkes estimate   =    -129.62406218 Ry
     estimated scf accuracy    <       0.00000085 Ry

     iteration # 11     ecut=    40.00 Ry     beta=0.50
     Davidson diagonalization with overlap
     ethr =  9.12E-10,  avg # of iterations =  2.4

     total cpu time spent up to now is     3576.6 secs

     total energy              =    -129.62406207 Ry
     Harris-Foulkes estimate   =    -129.62406213 Ry
     estimated scf accuracy    <       0.00000016 Ry

     iteration # 12     ecut=    40.00 Ry     beta=0.50
     Davidson diagonalization with overlap
     ethr =  1.71E-10,  avg # of iterations =  3.0

     total cpu time spent up to now is     3851.6 secs

     total energy              =    -129.62406207 Ry
     Harris-Foulkes estimate   =    -129.62406216 Ry
     estimated scf accuracy    <       0.00000036 Ry

     iteration # 13     ecut=    40.00 Ry     beta=0.50
     Davidson diagonalization with overlap
     ethr =  1.71E-10,  avg # of iterations =  2.4

     total cpu time spent up to now is     4070.6 secs

     End of self-consistent calculation

     Number of k-points >= 100: set verbosity='high' to print the bands.

     the Fermi energy is     7.7816 ev

!    total energy              =    -129.62406209 Ry
     Harris-Foulkes estimate   =    -129.62406212 Ry
     estimated scf accuracy    <       0.00000004 Ry

     The total energy is the sum of the following terms:

     one-electron contribution =      84.69252021 Ry
     hartree contribution      =       1.89532647 Ry
     xc contribution           =     -50.39301010 Ry
     ewald contribution        =    -165.81801249 Ry
     smearing contrib. (-TS)   =      -0.00088618 Ry

     convergence has been achieved in  13 iterations

     Forces acting on atoms (cartesian axes, Ry/au):

     atom    1 type  1   force =     0.03310287    0.01734990   -0.01589094
     atom    2 type  1   force =    -0.02619515   -0.04663523   -0.03530624
     atom    3 type  1   force =    -0.02007364    0.00452819    0.00514554
     atom    4 type  1   force =     0.00184172    0.01964183    0.00510831
     atom    5 type  1   force =    -0.00117702   -0.00039842    0.00676375
     atom    6 type  1   force =    -0.03643580    0.00382901    0.00897322
     atom    7 type  1   force =     0.03398390    0.01543417   -0.02464425
     atom    8 type  1   force =     0.02837771   -0.00755108    0.01132164
     atom    9 type  1   force =     0.00488134   -0.00456223   -0.04393214
     atom   10 type  1   force =    -0.05536719    0.04494101    0.03242481
     atom   11 type  1   force =     0.04231412   -0.06204476   -0.01490339
     atom   12 type  1   force =     0.01541099   -0.01413445   -0.02558330
     atom   13 type  1   force =     0.01428238    0.03619027    0.01643899
     atom   14 type  1   force =    -0.02669820   -0.02776718   -0.00697873
     atom   15 type  1   force =    -0.02666052    0.01987141    0.02095760
     atom   16 type  1   force =    -0.04815944    0.01181100    0.04707995
     atom   17 type  1   force =     0.02583288    0.01389779   -0.00432171
     atom   18 type  1   force =    -0.01256230    0.01776944    0.05146524
     atom   19 type  1   force =     0.01190199    0.03355723    0.02088749
     atom   20 type  1   force =    -0.00056768    0.03975271    0.03444224
     atom   21 type  1   force =    -0.02724300   -0.01726137    0.00966378
     atom   22 type  1   force =     0.01525480   -0.02804448   -0.04477192
     atom   23 type  1   force =    -0.00001106   -0.00810437   -0.02269212
     atom   24 type  1   force =    -0.02564832   -0.00709897    0.02449801
     atom   25 type  1   force =     0.03564733   -0.01634004   -0.04831305
     atom   26 type  1   force =     0.01659007   -0.02317279   -0.00672807
     atom   27 type  1   force =     0.00977482   -0.04059479    0.01104908
     atom   28 type  1   force =    -0.01495742   -0.01560856   -0.02822845
     atom   29 type  1   force =     0.01193886    0.02788950   -0.01174273
     atom   30 type  1   force =     0.00606719   -0.01488210    0.03732764
     atom   31 type  1   force =     0.01455375    0.02773737   -0.00951021

     Total force =     0.248685     Total SCF correction =     0.000266


     Computing stress (Cartesian axis) and pressure

          total   stress  (Ry/bohr**3)                   (kbar)     P=   10.15
   0.00001482   0.00000043  -0.00002497          2.18      0.06     -3.67
   0.00000043   0.00010730   0.00002751          0.06     15.78      4.05
  -0.00002497   0.00002751   0.00008482         -3.67      4.05     12.48


     Writing output data file Al.save

     init_run     :     97.72s CPU    309.92s WALL (       1 calls)
     electrons    :   2203.40s CPU   3760.75s WALL (       1 calls)
     forces       :      6.15s CPU      6.17s WALL (       1 calls)
     stress       :    124.95s CPU    373.81s WALL (       1 calls)

     Called by init_run:
     wfcinit      :     97.54s CPU    309.39s WALL (       1 calls)
     potinit      :      0.02s CPU      0.04s WALL (       1 calls)

     Called by electrons:
     c_bands      :   2135.75s CPU   3690.94s WALL (      14 calls)
     sum_band     :     66.45s CPU     67.75s WALL (      14 calls)
     v_of_rho     :      0.31s CPU      0.36s WALL (      14 calls)
     mix_rho      :      0.84s CPU      1.45s WALL (      14 calls)

     Called by c_bands:
     init_us_2    :      6.05s CPU      6.70s WALL (    5332 calls)
     cegterg      :   2035.73s CPU   3525.75s WALL (    2408 calls)

     Called by sum_band:

     Called by *egterg:
     h_psi        :    945.49s CPU   1521.86s WALL (    9425 calls)
     g_psi        :      5.76s CPU      8.14s WALL (    6845 calls)
     cdiaghg      :    779.12s CPU   1626.05s WALL (    9081 calls)

     Called by h_psi:
     h_psi:pot    :    942.10s CPU   1517.94s WALL (    9425 calls)
     h_psi:calbec :    112.78s CPU    334.34s WALL (    9425 calls)
     vloc_psi     :    786.59s CPU   1115.42s WALL (    9425 calls)
     add_vuspsi   :     42.62s CPU     67.89s WALL (    9425 calls)

     General routines
     calbec       :    160.52s CPU    462.02s WALL (   10285 calls)
     fft          :      0.67s CPU      1.95s WALL (      62 calls)
     fftw         :    817.01s CPU   1145.44s WALL (  875794 calls)
     davcio       :      3.32s CPU     31.81s WALL (    7906 calls)

     Parallel routines
     fft_scatter  :    565.08s CPU    887.25s WALL (  875856 calls)

     PWSCF        :     0h40m CPU        1h14m WALL


   This run was terminated on:  22:53:34  18Sep2018            

=------------------------------------------------------------------------------=
   JOB DONE.
=------------------------------------------------------------------------------=
